+ 0.5 0 2 cbr 210 ------- 2 0.0 2.0 0 0
- 0.5 0 2 cbr 210 ------- 2 0.0 2.0 0 0
+ 0.50375 0 2 cbr 210 ------- 2 0.0 2.0 1 1
+ 0.5075 0 2 cbr 210 ------- 2 0.0 2.0 2 2
+ 0.51125 0 2 cbr 210 ------- 2 0.0 2.0 3 3
+ 0.515 0 2 cbr 210 ------- 2 0.0 2.0 4 4
- 0.5168 0 2 cbr 210 ------- 2 0.0 2.0 1 1
+ 0.51875 0 2 cbr 210 ------- 2 0.0 2.0 5 5
+ 0.5225 0 2 cbr 210 ------- 2 0.0 2.0 6 6
+ 0.52625 0 2 cbr 210 ------- 2 0.0 2.0 7 7
r 0.5268 0 2 cbr 210 ------- 2 0.0 2.0 0 0
+ 0.53 0 2 cbr 210 ------- 2 0.0 2.0 8 8
- 0.5336 0 2 cbr 210 ------- 2 0.0 2.0 2 2
+ 0.53375 0 2 cbr 210 ------- 2 0.0 2.0 9 9
+ 0.5375 0 2 cbr 210 ------- 2 0.0 2.0 10 10
+ 0.54125 0 2 cbr 210 ------- 2 0.0 2.0 11 11
r 0.5436 0 2 cbr 210 ------- 2 0.0 2.0 1 1
+ 0.545 0 2 cbr 210 ------- 2 0.0 2.0 12 12
+ 0.54875 0 2 cbr 210 ------- 2 0.0 2.0 13 13
- 0.5504 0 2 cbr 210 ------- 2 0.0 2.0 3 3
+ 0.5525 0 2 cbr 210 ------- 2 0.0 2.0 14 14
+ 0.55625 0 2 cbr 210 ------- 2 0.0 2.0 15 15
+ 0.56 0 2 cbr 210 ------- 2 0.0 2.0 16 16
r 0.5604 0 2 cbr 210 ------- 2 0.0 2.0 2 2
+ 0.56375 0 2 cbr 210 ------- 2 0.0 2.0 17 17
- 0.5672 0 2 cbr 210 ------- 2 0.0 2.0 4 4
+ 0.5675 0 2 cbr 210 ------- 2 0.0 2.0 18 18
+ 0.57125 0 2 cbr 210 ------- 2 0.0 2.0 19 19
+ 0.575 0 2 cbr 210 ------- 2 0.0 2.0 20 20
r 0.5772 0 2 cbr 210 ------- 2 0.0 2.0 3 3
+ 0.57875 0 2 cbr 210 ------- 2 0.0 2.0 21 21
+ 0.5825 0 2 cbr 210 ------- 2 0.0 2.0 22 22
- 0.584 0 2 cbr 210 ------- 2 0.0 2.0 5 5
+ 0.58625 0 2 cbr 210 ------- 2 0.0 2.0 23 23
+ 0.59 0 2 cbr 210 ------- 2 0.0 2.0 24 24
+ 0.59375 0 2 cbr 210 ------- 2 0.0 2.0 25 25
r 0.594 0 2 cbr 210 ------- 2 0.0 2.0 4 4
+ 0.5975 0 2 cbr 210 ------- 2 0.0 2.0 26 26
- 0.6008 0 2 cbr 210 ------- 2 0.0 2.0 6 6
+ 0.60125 0 2 cbr 210 ------- 2 0.0 2.0 27 27
+ 0.605 0 2 cbr 210 ------- 2 0.0 2.0 28 28
+ 0.60875 0 2 cbr 210 ------- 2 0.0 2.0 29 29
r 0.6108 0 2 cbr 210 ------- 2 0.0 2.0 5 5
+ 0.6125 0 2 cbr 210 ------- 2 0.0 2.0 30 30
+ 0.61625 0 2 cbr 210 ------- 2 0.0 2.0 31 31
- 0.6176 0 2 cbr 210 ------- 2 0.0 2.0 7 7
+ 0.62 0 2 cbr 210 ------- 2 0.0 2.0 32 32
+ 0.62375 0 2 cbr 210 ------- 2 0.0 2.0 33 33
+ 0.6275 0 2 cbr 210 ------- 2 0.0 2.0 34 34
r 0.6276 0 2 cbr 210 ------- 2 0.0 2.0 6 6
+ 0.63125 0 2 cbr 210 ------- 2 0.0 2.0 35 35
- 0.6344 0 2 cbr 210 ------- 2 0.0 2.0 8 8
+ 0.635 0 2 cbr 210 ------- 2 0.0 2.0 36 36
+ 0.63875 0 2 cbr 210 ------- 2 0.0 2.0 37 37
+ 0.6425 0 2 cbr 210 ------- 2 0.0 2.0 38 38
r 0.6444 0 2 cbr 210 ------- 2 0.0 2.0 7 7
+ 0.64625 0 2 cbr 210 ------- 2 0.0 2.0 39 39
+ 0.65 0 2 cbr 210 ------- 2 0.0 2.0 40 40
- 0.6512 0 2 cbr 210 ------- 2 0.0 2.0 9 9
+ 0.65375 0 2 cbr 210 ------- 2 0.0 2.0 41 41
+ 0.6575 0 2 cbr 210 ------- 2 0.0 2.0 42 42
r 0.6612 0 2 cbr 210 ------- 2 0.0 2.0 8 8
+ 0.66125 0 2 cbr 210 ------- 2 0.0 2.0 43 43
+ 0.665 0 2 cbr 210 ------- 2 0.0 2.0 44 44
- 0.668 0 2 cbr 210 ------- 2 0.0 2.0 10 10
+ 0.66875 0 2 cbr 210 ------- 2 0.0 2.0 45 45
+ 0.6725 0 2 cbr 210 ------- 2 0.0 2.0 46 46
+ 0.67625 0 2 cbr 210 ------- 2 0.0 2.0 47 47
r 0.678 0 2 cbr 210 ------- 2 0.0 2.0 9 9
+ 0.68 0 2 cbr 210 ------- 2 0.0 2.0 48 48
+ 0.68375 0 2 cbr 210 ------- 2 0.0 2.0 49 49
- 0.6848 0 2 cbr 210 ------- 2 0.0 2.0 11 11
+ 0.6875 0 2 cbr 210 ------- 2 0.0 2.0 50 50
+ 0.69125 0 2 cbr 210 ------- 2 0.0 2.0 51 51
r 0.6948 0 2 cbr 210 ------- 2 0.0 2.0 10 10
+ 0.695 0 2 cbr 210 ------- 2 0.0 2.0 52 52
+ 0.69875 0 2 cbr 210 ------- 2 0.0 2.0 53 53
- 0.7016 0 2 cbr 210 ------- 2 0.0 2.0 12 12
+ 0.7025 0 2 cbr 210 ------- 2 0.0 2.0 54 54
+ 0.70625 0 2 cbr 210 ------- 2 0.0 2.0 55 55
+ 0.71 0 2 cbr 210 ------- 2 0.0 2.0 56 56
r 0.7116 0 2 cbr 210 ------- 2 0.0 2.0 11 11
+ 0.71375 0 2 cbr 210 ------- 2 0.0 2.0 57 57
+ 0.7175 0 2 cbr 210 ------- 2 0.0 2.0 58 58
- 0.7184 0 2 cbr 210 ------- 2 0.0 2.0 13 13
+ 0.72125 0 2 cbr 210 ------- 2 0.0 2.0 59 59
+ 0.725 0 2 cbr 210 ------- 2 0.0 2.0 60 60
r 0.7284 0 2 cbr 210 ------- 2 0.0 2.0 12 12
+ 0.72875 0 2 cbr 210 ------- 2 0.0 2.0 61 61
+ 0.7325 0 2 cbr 210 ------- 2 0.0 2.0 62 62
- 0.7352 0 2 cbr 210 ------- 2 0.0 2.0 14 14
+ 0.73625 0 2 cbr 210 ------- 2 0.0 2.0 63 63
+ 0.74 0 2 cbr 210 ------- 2 0.0 2.0 64 64
d 0.74 0 2 cbr 210 ------- 2 0.0 2.0 64 64
+ 0.74375 0 2 cbr 210 ------- 2 0.0 2.0 65 65
d 0.74375 0 2 cbr 210 ------- 2 0.0 2.0 65 65
r 0.7452 0 2 cbr 210 ------- 2 0.0 2.0 13 13
+ 0.7475 0 2 cbr 210 ------- 2 0.0 2.0 66 66
d 0.7475 0 2 cbr 210 ------- 2 0.0 2.0 66 66
+ 0.75125 0 2 cbr 210 ------- 2 0.0 2.0 67 67
d 0.75125 0 2 cbr 210 ------- 2 0.0 2.0 67 67
- 0.752 0 2 cbr 210 ------- 2 0.0 2.0 15 15
+ 0.755 0 2 cbr 210 ------- 2 0.0 2.0 68 68
+ 0.75875 0 2 cbr 210 ------- 2 0.0 2.0 69 69
d 0.75875 0 2 cbr 210 ------- 2 0.0 2.0 69 69
r 0.762 0 2 cbr 210 ------- 2 0.0 2.0 14 14
+ 0.7625 0 2 cbr 210 ------- 2 0.0 2.0 70 70
d 0.7625 0 2 cbr 210 ------- 2 0.0 2.0 70 70
+ 0.76625 0 2 cbr 210 ------- 2 0.0 2.0 71 71
d 0.76625 0 2 cbr 210 ------- 2 0.0 2.0 71 71
- 0.7688 0 2 cbr 210 ------- 2 0.0 2.0 16 16
+ 0.77 0 2 cbr 210 ------- 2 0.0 2.0 72 72
+ 0.77375 0 2 cbr 210 ------- 2 0.0 2.0 73 73
d 0.77375 0 2 cbr 210 ------- 2 0.0 2.0 73 73
+ 0.7775 0 2 cbr 210 ------- 2 0.0 2.0 74 74
d 0.7775 0 2 cbr 210 ------- 2 0.0 2.0 74 74
r 0.7788 0 2 cbr 210 ------- 2 0.0 2.0 15 15
+ 0.78125 0 2 cbr 210 ------- 2 0.0 2.0 75 75
d 0.78125 0 2 cbr 210 ------- 2 0.0 2.0 75 75
+ 0.785 0 2 cbr 210 ------- 2 0.0 2.0 76 76
d 0.785 0 2 cbr 210 ------- 2 0.0 2.0 76 76
- 0.7856 0 2 cbr 210 ------- 2 0.0 2.0 17 17
+ 0.78875 0 2 cbr 210 ------- 2 0.0 2.0 77 77
+ 0.7925 0 2 cbr 210 ------- 2 0.0 2.0 78 78
d 0.7925 0 2 cbr 210 ------- 2 0.0 2.0 78 78
r 0.7956 0 2 cbr 210 ------- 2 0.0 2.0 16 16
+ 0.79625 0 2 cbr 210 ------- 2 0.0 2.0 79 79
d 0.79625 0 2 cbr 210 ------- 2 0.0 2.0 79 79
+ 0.8 0 2 cbr 210 ------- 2 0.0 2.0 80 80
d 0.8 0 2 cbr 210 ------- 2 0.0 2.0 80 80
- 0.8024 0 2 cbr 210 ------- 2 0.0 2.0 18 18
+ 0.80375 0 2 cbr 210 ------- 2 0.0 2.0 81 81
+ 0.8075 0 2 cbr 210 ------- 2 0.0 2.0 82 82
d 0.8075 0 2 cbr 210 ------- 2 0.0 2.0 82 82
+ 0.81125 0 2 cbr 210 ------- 2 0.0 2.0 83 83
d 0.81125 0 2 cbr 210 ------- 2 0.0 2.0 83 83
r 0.8124 0 2 cbr 210 ------- 2 0.0 2.0 17 17
+ 0.815 0 2 cbr 210 ------- 2 0.0 2.0 84 84
d 0.815 0 2 cbr 210 ------- 2 0.0 2.0 84 84
+ 0.81875 0 2 cbr 210 ------- 2 0.0 2.0 85 85
d 0.81875 0 2 cbr 210 ------- 2 0.0 2.0 85 85
- 0.8192 0 2 cbr 210 ------- 2 0.0 2.0 19 19
+ 0.8225 0 2 cbr 210 ------- 2 0.0 2.0 86 86
+ 0.82625 0 2 cbr 210 ------- 2 0.0 2.0 87 87
d 0.82625 0 2 cbr 210 ------- 2 0.0 2.0 87 87
r 0.8292 0 2 cbr 210 ------- 2 0.0 2.0 18 18
+ 0.83 0 2 cbr 210 ------- 2 0.0 2.0 88 88
d 0.83 0 2 cbr 210 ------- 2 0.0 2.0 88 88
+ 0.83375 0 2 cbr 210 ------- 2 0.0 2.0 89 89
d 0.83375 0 2 cbr 210 ------- 2 0.0 2.0 89 89
- 0.836 0 2 cbr 210 ------- 2 0.0 2.0 20 20
+ 0.8375 0 2 cbr 210 ------- 2 0.0 2.0 90 90
+ 0.84125 0 2 cbr 210 ------- 2 0.0 2.0 91 91
d 0.84125 0 2 cbr 210 ------- 2 0.0 2.0 91 91
+ 0.845 0 2 cbr 210 ------- 2 0.0 2.0 92 92
d 0.845 0 2 cbr 210 ------- 2 0.0 2.0 92 92
r 0.846 0 2 cbr 210 ------- 2 0.0 2.0 19 19
+ 0.84875 0 2 cbr 210 ------- 2 0.0 2.0 93 93
d 0.84875 0 2 cbr 210 ------- 2 0.0 2.0 93 93
+ 0.8525 0 2 cbr 210 ------- 2 0.0 2.0 94 94
d 0.8525 0 2 cbr 210 ------- 2 0.0 2.0 94 94
- 0.8528 0 2 cbr 210 ------- 2 0.0 2.0 21 21
+ 0.85625 0 2 cbr 210 ------- 2 0.0 2.0 95 95
+ 0.86 0 2 cbr 210 ------- 2 0.0 2.0 96 96
d 0.86 0 2 cbr 210 ------- 2 0.0 2.0 96 96
r 0.8628 0 2 cbr 210 ------- 2 0.0 2.0 20 20
+ 0.86375 0 2 cbr 210 ------- 2 0.0 2.0 97 97
d 0.86375 0 2 cbr 210 ------- 2 0.0 2.0 97 97
+ 0.8675 0 2 cbr 210 ------- 2 0.0 2.0 98 98
d 0.8675 0 2 cbr 210 ------- 2 0.0 2.0 98 98
- 0.8696 0 2 cbr 210 ------- 2 0.0 2.0 22 22
+ 0.87125 0 2 cbr 210 ------- 2 0.0 2.0 99 99
+ 0.875 0 2 cbr 210 ------- 2 0.0 2.0 100 100
d 0.875 0 2 cbr 210 ------- 2 0.0 2.0 100 100
+ 0.87875 0 2 cbr 210 ------- 2 0.0 2.0 101 101
d 0.87875 0 2 cbr 210 ------- 2 0.0 2.0 101 101
r 0.8796 0 2 cbr 210 ------- 2 0.0 2.0 21 21
+ 0.8825 0 2 cbr 210 ------- 2 0.0 2.0 102 102
d 0.8825 0 2 cbr 210 ------- 2 0.0 2.0 102 102
+ 0.88625 0 2 cbr 210 ------- 2 0.0 2.0 103 103
d 0.88625 0 2 cbr 210 ------- 2 0.0 2.0 103 103
- 0.8864 0 2 cbr 210 ------- 2 0.0 2.0 23 23
+ 0.89 0 2 cbr 210 ------- 2 0.0 2.0 104 104
+ 0.89375 0 2 cbr 210 ------- 2 0.0 2.0 105 105
d 0.89375 0 2 cbr 210 ------- 2 0.0 2.0 105 105
r 0.8964 0 2 cbr 210 ------- 2 0.0 2.0 22 22
+ 0.8975 0 2 cbr 210 ------- 2 0.0 2.0 106 106
d 0.8975 0 2 cbr 210 ------- 2 0.0 2.0 106 106
+ 0.90125 0 2 cbr 210 ------- 2 0.0 2.0 107 107
d 0.90125 0 2 cbr 210 ------- 2 0.0 2.0 107 107
- 0.9032 0 2 cbr 210 ------- 2 0.0 2.0 24 24
+ 0.905 0 2 cbr 210 ------- 2 0.0 2.0 108 108
+ 0.90875 0 2 cbr 210 ------- 2 0.0 2.0 109 109
d 0.90875 0 2 cbr 210 ------- 2 0.0 2.0 109 109
+ 0.9125 0 2 cbr 210 ------- 2 0.0 2.0 110 110
d 0.9125 0 2 cbr 210 ------- 2 0.0 2.0 110 110
r 0.9132 0 2 cbr 210 ------- 2 0.0 2.0 23 23
+ 0.91625 0 2 cbr 210 ------- 2 0.0 2.0 111 111
d 0.91625 0 2 cbr 210 ------- 2 0.0 2.0 111 111
- 0.92 0 2 cbr 210 ------- 2 0.0 2.0 25 25
+ 0.92 0 2 cbr 210 ------- 2 0.0 2.0 112 112
+ 0.92375 0 2 cbr 210 ------- 2 0.0 2.0 113 113
d 0.92375 0 2 cbr 210 ------- 2 0.0 2.0 113 113
+ 0.9275 0 2 cbr 210 ------- 2 0.0 2.0 114 114
d 0.9275 0 2 cbr 210 ------- 2 0.0 2.0 114 114
r 0.93 0 2 cbr 210 ------- 2 0.0 2.0 24 24
+ 0.93125 0 2 cbr 210 ------- 2 0.0 2.0 115 115
d 0.93125 0 2 cbr 210 ------- 2 0.0 2.0 115 115
+ 0.935 0 2 cbr 210 ------- 2 0.0 2.0 116 116
d 0.935 0 2 cbr 210 ------- 2 0.0 2.0 116 116
- 0.9368 0 2 cbr 210 ------- 2 0.0 2.0 26 26
+ 0.93875 0 2 cbr 210 ------- 2 0.0 2.0 117 117
+ 0.9425 0 2 cbr 210 ------- 2 0.0 2.0 118 118
d 0.9425 0 2 cbr 210 ------- 2 0.0 2.0 118 118
+ 0.94625 0 2 cbr 210 ------- 2 0.0 2.0 119 119
d 0.94625 0 2 cbr 210 ------- 2 0.0 2.0 119 119
r 0.9468 0 2 cbr 210 ------- 2 0.0 2.0 25 25
+ 0.95 0 2 cbr 210 ------- 2 0.0 2.0 120 120
d 0.95 0 2 cbr 210 ------- 2 0.0 2.0 120 120
- 0.9536 0 2 cbr 210 ------- 2 0.0 2.0 27 27
+ 0.95375 0 2 cbr 210 ------- 2 0.0 2.0 121 121
+ 0.9575 0 2 cbr 210 ------- 2 0.0 2.0 122 122
d 0.9575 0 2 cbr 210 ------- 2 0.0 2.0 122 122
+ 0.96125 0 2 cbr 210 ------- 2 0.0 2.0 123 123
d 0.96125 0 2 cbr 210 ------- 2 0.0 2.0 123 123
r 0.9636 0 2 cbr 210 ------- 2 0.0 2.0 26 26
+ 0.965 0 2 cbr 210 ------- 2 0.0 2.0 124 124
d 0.965 0 2 cbr 210 ------- 2 0.0 2.0 124 124
+ 0.96875 0 2 cbr 210 ------- 2 0.0 2.0 125 125
d 0.96875 0 2 cbr 210 ------- 2 0.0 2.0 125 125
- 0.9704 0 2 cbr 210 ------- 2 0.0 2.0 28 28
+ 0.9725 0 2 cbr 210 ------- 2 0.0 2.0 126 126
+ 0.97625 0 2 cbr 210 ------- 2 0.0 2.0 127 127
d 0.97625 0 2 cbr 210 ------- 2 0.0 2.0 127 127
+ 0.98 0 2 cbr 210 ------- 2 0.0 2.0 128 128
d 0.98 0 2 cbr 210 ------- 2 0.0 2.0 128 128
r 0.9804 0 2 cbr 210 ------- 2 0.0 2.0 27 27
+ 0.98375 0 2 cbr 210 ------- 2 0.0 2.0 129 129
d 0.98375 0 2 cbr 210 ------- 2 0.0 2.0 129 129
- 0.9872 0 2 cbr 210 ------- 2 0.0 2.0 29 29
+ 0.9875 0 2 cbr 210 ------- 2 0.0 2.0 130 130
+ 0.99125 0 2 cbr 210 ------- 2 0.0 2.0 131 131
d 0.99125 0 2 cbr 210 ------- 2 0.0 2.0 131 131
+ 0.995 0 2 cbr 210 ------- 2 0.0 2.0 132 132
d 0.995 0 2 cbr 210 ------- 2 0.0 2.0 132 132
r 0.9972 0 2 cbr 210 ------- 2 0.0 2.0 28 28
+ 0.99875 0 2 cbr 210 ------- 2 0.0 2.0 133 133
d 0.99875 0 2 cbr 210 ------- 2 0.0 2.0 133 133
+ 1 1 2 tcp 40 ------- 2 1.0 2.1 0 134
- 1 1 2 tcp 40 ------- 2 1.0 2.1 0 134
+ 1.0025 0 2 cbr 210 ------- 2 0.0 2.0 134 135
d 1.0025 0 2 cbr 210 ------- 2 0.0 2.0 134 135
- 1.004 0 2 cbr 210 ------- 2 0.0 2.0 30 30
+ 1.00625 0 2 cbr 210 ------- 2 0.0 2.0 135 136
+ 1.01 0 2 cbr 210 ------- 2 0.0 2.0 136 137
d 1.01 0 2 cbr 210 ------- 2 0.0 2.0 136 137
r 1.0132 1 2 tcp 40 ------- 2 1.0 2.1 0 134
+ 1.0132 2 1 ack 40 ------- 2 2.1 1.0 0 138
- 1.0132 2 1 ack 40 ------- 2 2.1 1.0 0 138
+ 1.01375 0 2 cbr 210 ------- 2 0.0 2.0 137 139
d 1.01375 0 2 cbr 210 ------- 2 0.0 2.0 137 139
r 1.014 0 2 cbr 210 ------- 2 0.0 2.0 29 29
+ 1.0175 0 2 cbr 210 ------- 2 0.0 2.0 138 140
d 1.0175 0 2 cbr 210 ------- 2 0.0 2.0 138 140
- 1.0208 0 2 cbr 210 ------- 2 0.0 2.0 31 31
+ 1.02125 0 2 cbr 210 ------- 2 0.0 2.0 139 141
+ 1.025 0 2 cbr 210 ------- 2 0.0 2.0 140 142
d 1.025 0 2 cbr 210 ------- 2 0.0 2.0 140 142
r 1.0264 2 1 ack 40 ------- 2 2.1 1.0 0 138
+ 1.0264 1 2 tcp 1040 ------- 2 1.0 2.1 1 143
- 1.0264 1 2 tcp 1040 ------- 2 1.0 2.1 1 143
+ 1.0264 1 2 tcp 1040 ------- 2 1.0 2.1 2 144
+ 1.02875 0 2 cbr 210 ------- 2 0.0 2.0 141 145
d 1.02875 0 2 cbr 210 ------- 2 0.0 2.0 141 145
r 1.0308 0 2 cbr 210 ------- 2 0.0 2.0 30 30
+ 1.0325 0 2 cbr 210 ------- 2 0.0 2.0 142 146
d 1.0325 0 2 cbr 210 ------- 2 0.0 2.0 142 146
+ 1.03625 0 2 cbr 210 ------- 2 0.0 2.0 143 147
d 1.03625 0 2 cbr 210 ------- 2 0.0 2.0 143 147
- 1.0376 0 2 cbr 210 ------- 2 0.0 2.0 32 32
+ 1.04 0 2 cbr 210 ------- 2 0.0 2.0 144 148
+ 1.04375 0 2 cbr 210 ------- 2 0.0 2.0 145 149
d 1.04375 0 2 cbr 210 ------- 2 0.0 2.0 145 149
+ 1.0475 0 2 cbr 210 ------- 2 0.0 2.0 146 150
d 1.0475 0 2 cbr 210 ------- 2 0.0 2.0 146 150
r 1.0476 0 2 cbr 210 ------- 2 0.0 2.0 31 31
+ 1.05125 0 2 cbr 210 ------- 2 0.0 2.0 147 151
d 1.05125 0 2 cbr 210 ------- 2 0.0 2.0 147 151
- 1.0544 0 2 cbr 210 ------- 2 0.0 2.0 33 33
+ 1.055 0 2 cbr 210 ------- 2 0.0 2.0 148 152
+ 1.05875 0 2 cbr 210 ------- 2 0.0 2.0 149 153
d 1.05875 0 2 cbr 210 ------- 2 0.0 2.0 149 153
+ 1.0625 0 2 cbr 210 ------- 2 0.0 2.0 150 154
d 1.0625 0 2 cbr 210 ------- 2 0.0 2.0 150 154
r 1.0644 0 2 cbr 210 ------- 2 0.0 2.0 32 32
+ 1.06625 0 2 cbr 210 ------- 2 0.0 2.0 151 155
d 1.06625 0 2 cbr 210 ------- 2 0.0 2.0 151 155
+ 1.07 0 2 cbr 210 ------- 2 0.0 2.0 152 156
d 1.07 0 2 cbr 210 ------- 2 0.0 2.0 152 156
- 1.0712 0 2 cbr 210 ------- 2 0.0 2.0 34 34
+ 1.07375 0 2 cbr 210 ------- 2 0.0 2.0 153 157
+ 1.0775 0 2 cbr 210 ------- 2 0.0 2.0 154 158
d 1.0775 0 2 cbr 210 ------- 2 0.0 2.0 154 158
r 1.0812 0 2 cbr 210 ------- 2 0.0 2.0 33 33
+ 1.08125 0 2 cbr 210 ------- 2 0.0 2.0 155 159
d 1.08125 0 2 cbr 210 ------- 2 0.0 2.0 155 159
+ 1.085 0 2 cbr 210 ------- 2 0.0 2.0 156 160
d 1.085 0 2 cbr 210 ------- 2 0.0 2.0 156 160
- 1.088 0 2 cbr 210 ------- 2 0.0 2.0 35 35
+ 1.08875 0 2 cbr 210 ------- 2 0.0 2.0 157 161
+ 1.0925 0 2 cbr 210 ------- 2 0.0 2.0 158 162
d 1.0925 0 2 cbr 210 ------- 2 0.0 2.0 158 162
+ 1.09625 0 2 cbr 210 ------- 2 0.0 2.0 159 163
d 1.09625 0 2 cbr 210 ------- 2 0.0 2.0 159 163
r 1.098 0 2 cbr 210 ------- 2 0.0 2.0 34 34
+ 1.1 0 2 cbr 210 ------- 2 0.0 2.0 160 164
d 1.1 0 2 cbr 210 ------- 2 0.0 2.0 160 164
+ 1.10375 0 2 cbr 210 ------- 2 0.0 2.0 161 165
d 1.10375 0 2 cbr 210 ------- 2 0.0 2.0 161 165
- 1.1048 0 2 cbr 210 ------- 2 0.0 2.0 36 36
+ 1.1075 0 2 cbr 210 ------- 2 0.0 2.0 162 166
- 1.1096 1 2 tcp 1040 ------- 2 1.0 2.1 2 144
+ 1.11125 0 2 cbr 210 ------- 2 0.0 2.0 163 167
d 1.11125 0 2 cbr 210 ------- 2 0.0 2.0 163 167
r 1.1148 0 2 cbr 210 ------- 2 0.0 2.0 35 35
+ 1.115 0 2 cbr 210 ------- 2 0.0 2.0 164 168
d 1.115 0 2 cbr 210 ------- 2 0.0 2.0 164 168
+ 1.11875 0 2 cbr 210 ------- 2 0.0 2.0 165 169
d 1.11875 0 2 cbr 210 ------- 2 0.0 2.0 165 169
r 1.1196 1 2 tcp 1040 ------- 2 1.0 2.1 1 143
+ 1.1196 2 1 ack 40 ------- 2 2.1 1.0 1 170
- 1.1196 2 1 ack 40 ------- 2 2.1 1.0 1 170
- 1.1216 0 2 cbr 210 ------- 2 0.0 2.0 37 37
+ 1.1225 0 2 cbr 210 ------- 2 0.0 2.0 166 171
+ 1.12625 0 2 cbr 210 ------- 2 0.0 2.0 167 172
d 1.12625 0 2 cbr 210 ------- 2 0.0 2.0 167 172
+ 1.13 0 2 cbr 210 ------- 2 0.0 2.0 168 173
d 1.13 0 2 cbr 210 ------- 2 0.0 2.0 168 173
r 1.1316 0 2 cbr 210 ------- 2 0.0 2.0 36 36
r 1.1328 2 1 ack 40 ------- 2 2.1 1.0 1 170
+ 1.1328 1 2 tcp 1040 ------- 2 1.0 2.1 3 174
+ 1.1328 1 2 tcp 1040 ------- 2 1.0 2.1 4 175
+ 1.13375 0 2 cbr 210 ------- 2 0.0 2.0 169 176
d 1.13375 0 2 cbr 210 ------- 2 0.0 2.0 169 176
+ 1.1375 0 2 cbr 210 ------- 2 0.0 2.0 170 177
d 1.1375 0 2 cbr 210 ------- 2 0.0 2.0 170 177
- 1.1384 0 2 cbr 210 ------- 2 0.0 2.0 38 38
+ 1.14125 0 2 cbr 210 ------- 2 0.0 2.0 171 178
+ 1.145 0 2 cbr 210 ------- 2 0.0 2.0 172 179
d 1.145 0 2 cbr 210 ------- 2 0.0 2.0 172 179
r 1.1484 0 2 cbr 210 ------- 2 0.0 2.0 37 37
+ 1.14875 0 2 cbr 210 ------- 2 0.0 2.0 173 180
d 1.14875 0 2 cbr 210 ------- 2 0.0 2.0 173 180
+ 1.1525 0 2 cbr 210 ------- 2 0.0 2.0 174 181
d 1.1525 0 2 cbr 210 ------- 2 0.0 2.0 174 181
- 1.1552 0 2 cbr 210 ------- 2 0.0 2.0 39 39
+ 1.15625 0 2 cbr 210 ------- 2 0.0 2.0 175 182
+ 1.16 0 2 cbr 210 ------- 2 0.0 2.0 176 183
d 1.16 0 2 cbr 210 ------- 2 0.0 2.0 176 183
+ 1.16375 0 2 cbr 210 ------- 2 0.0 2.0 177 184
d 1.16375 0 2 cbr 210 ------- 2 0.0 2.0 177 184
r 1.1652 0 2 cbr 210 ------- 2 0.0 2.0 38 38
+ 1.1675 0 2 cbr 210 ------- 2 0.0 2.0 178 185
d 1.1675 0 2 cbr 210 ------- 2 0.0 2.0 178 185
+ 1.17125 0 2 cbr 210 ------- 2 0.0 2.0 179 186
d 1.17125 0 2 cbr 210 ------- 2 0.0 2.0 179 186
- 1.172 0 2 cbr 210 ------- 2 0.0 2.0 40 40
+ 1.175 0 2 cbr 210 ------- 2 0.0 2.0 180 187
+ 1.17875 0 2 cbr 210 ------- 2 0.0 2.0 181 188
d 1.17875 0 2 cbr 210 ------- 2 0.0 2.0 181 188
r 1.182 0 2 cbr 210 ------- 2 0.0 2.0 39 39
+ 1.1825 0 2 cbr 210 ------- 2 0.0 2.0 182 189
d 1.1825 0 2 cbr 210 ------- 2 0.0 2.0 182 189
+ 1.18625 0 2 cbr 210 ------- 2 0.0 2.0 183 190
d 1.18625 0 2 cbr 210 ------- 2 0.0 2.0 183 190
- 1.1888 0 2 cbr 210 ------- 2 0.0 2.0 41 41
+ 1.19 0 2 cbr 210 ------- 2 0.0 2.0 184 191
- 1.1928 1 2 tcp 1040 ------- 2 1.0 2.1 3 174
+ 1.19375 0 2 cbr 210 ------- 2 0.0 2.0 185 192
d 1.19375 0 2 cbr 210 ------- 2 0.0 2.0 185 192
+ 1.1975 0 2 cbr 210 ------- 2 0.0 2.0 186 193
d 1.1975 0 2 cbr 210 ------- 2 0.0 2.0 186 193
r 1.1988 0 2 cbr 210 ------- 2 0.0 2.0 40 40
+ 1.20125 0 2 cbr 210 ------- 2 0.0 2.0 187 194
d 1.20125 0 2 cbr 210 ------- 2 0.0 2.0 187 194
r 1.2028 1 2 tcp 1040 ------- 2 1.0 2.1 2 144
+ 1.2028 2 1 ack 40 ------- 2 2.1 1.0 2 195
- 1.2028 2 1 ack 40 ------- 2 2.1 1.0 2 195
+ 1.205 0 2 cbr 210 ------- 2 0.0 2.0 188 196
d 1.205 0 2 cbr 210 ------- 2 0.0 2.0 188 196
- 1.2056 0 2 cbr 210 ------- 2 0.0 2.0 42 42
+ 1.20875 0 2 cbr 210 ------- 2 0.0 2.0 189 197
+ 1.2125 0 2 cbr 210 ------- 2 0.0 2.0 190 198
d 1.2125 0 2 cbr 210 ------- 2 0.0 2.0 190 198
r 1.2156 0 2 cbr 210 ------- 2 0.0 2.0 41 41
r 1.216 2 1 ack 40 ------- 2 2.1 1.0 2 195
+ 1.216 1 2 tcp 1040 ------- 2 1.0 2.1 5 199
+ 1.216 1 2 tcp 1040 ------- 2 1.0 2.1 6 200
+ 1.21625 0 2 cbr 210 ------- 2 0.0 2.0 191 201
d 1.21625 0 2 cbr 210 ------- 2 0.0 2.0 191 201
+ 1.22 0 2 cbr 210 ------- 2 0.0 2.0 192 202
d 1.22 0 2 cbr 210 ------- 2 0.0 2.0 192 202
- 1.2224 0 2 cbr 210 ------- 2 0.0 2.0 43 43
+ 1.22375 0 2 cbr 210 ------- 2 0.0 2.0 193 203
+ 1.2275 0 2 cbr 210 ------- 2 0.0 2.0 194 204
d 1.2275 0 2 cbr 210 ------- 2 0.0 2.0 194 204
+ 1.23125 0 2 cbr 210 ------- 2 0.0 2.0 195 205
d 1.23125 0 2 cbr 210 ------- 2 0.0 2.0 195 205
r 1.2324 0 2 cbr 210 ------- 2 0.0 2.0 42 42
+ 1.235 0 2 cbr 210 ------- 2 0.0 2.0 196 206
d 1.235 0 2 cbr 210 ------- 2 0.0 2.0 196 206
+ 1.23875 0 2 cbr 210 ------- 2 0.0 2.0 197 207
d 1.23875 0 2 cbr 210 ------- 2 0.0 2.0 197 207
- 1.2392 0 2 cbr 210 ------- 2 0.0 2.0 44 44
+ 1.2425 0 2 cbr 210 ------- 2 0.0 2.0 198 208
+ 1.24625 0 2 cbr 210 ------- 2 0.0 2.0 199 209
d 1.24625 0 2 cbr 210 ------- 2 0.0 2.0 199 209
r 1.2492 0 2 cbr 210 ------- 2 0.0 2.0 43 43
+ 1.25 0 2 cbr 210 ------- 2 0.0 2.0 200 210
d 1.25 0 2 cbr 210 ------- 2 0.0 2.0 200 210
+ 1.25375 0 2 cbr 210 ------- 2 0.0 2.0 201 211
d 1.25375 0 2 cbr 210 ------- 2 0.0 2.0 201 211
- 1.256 0 2 cbr 210 ------- 2 0.0 2.0 45 45
+ 1.2575 0 2 cbr 210 ------- 2 0.0 2.0 202 212
+ 1.26125 0 2 cbr 210 ------- 2 0.0 2.0 203 213
d 1.26125 0 2 cbr 210 ------- 2 0.0 2.0 203 213
+ 1.265 0 2 cbr 210 ------- 2 0.0 2.0 204 214
d 1.265 0 2 cbr 210 ------- 2 0.0 2.0 204 214
r 1.266 0 2 cbr 210 ------- 2 0.0 2.0 44 44
+ 1.26875 0 2 cbr 210 ------- 2 0.0 2.0 205 215
d 1.26875 0 2 cbr 210 ------- 2 0.0 2.0 205 215
+ 1.2725 0 2 cbr 210 ------- 2 0.0 2.0 206 216
d 1.2725 0 2 cbr 210 ------- 2 0.0 2.0 206 216
- 1.2728 0 2 cbr 210 ------- 2 0.0 2.0 46 46
- 1.276 1 2 tcp 1040 ------- 2 1.0 2.1 4 175
+ 1.27625 0 2 cbr 210 ------- 2 0.0 2.0 207 217
+ 1.28 0 2 cbr 210 ------- 2 0.0 2.0 208 218
d 1.28 0 2 cbr 210 ------- 2 0.0 2.0 208 218
r 1.2828 0 2 cbr 210 ------- 2 0.0 2.0 45 45
+ 1.28375 0 2 cbr 210 ------- 2 0.0 2.0 209 219
d 1.28375 0 2 cbr 210 ------- 2 0.0 2.0 209 219
r 1.286 1 2 tcp 1040 ------- 2 1.0 2.1 3 174
+ 1.286 2 1 ack 40 ------- 2 2.1 1.0 3 220
- 1.286 2 1 ack 40 ------- 2 2.1 1.0 3 220
+ 1.2875 0 2 cbr 210 ------- 2 0.0 2.0 210 221
d 1.2875 0 2 cbr 210 ------- 2 0.0 2.0 210 221
- 1.2896 0 2 cbr 210 ------- 2 0.0 2.0 47 47
+ 1.29125 0 2 cbr 210 ------- 2 0.0 2.0 211 222
+ 1.295 0 2 cbr 210 ------- 2 0.0 2.0 212 223
d 1.295 0 2 cbr 210 ------- 2 0.0 2.0 212 223
+ 1.29875 0 2 cbr 210 ------- 2 0.0 2.0 213 224
d 1.29875 0 2 cbr 210 ------- 2 0.0 2.0 213 224
r 1.2992 2 1 ack 40 ------- 2 2.1 1.0 3 220
+ 1.2992 1 2 tcp 1040 ------- 2 1.0 2.1 7 225
+ 1.2992 1 2 tcp 1040 ------- 2 1.0 2.1 8 226
r 1.2996 0 2 cbr 210 ------- 2 0.0 2.0 46 46
+ 1.3025 0 2 cbr 210 ------- 2 0.0 2.0 214 227
d 1.3025 0 2 cbr 210 ------- 2 0.0 2.0 214 227
+ 1.30625 0 2 cbr 210 ------- 2 0.0 2.0 215 228
d 1.30625 0 2 cbr 210 ------- 2 0.0 2.0 215 228
- 1.3064 0 2 cbr 210 ------- 2 0.0 2.0 48 48
+ 1.31 0 2 cbr 210 ------- 2 0.0 2.0 216 229
+ 1.31375 0 2 cbr 210 ------- 2 0.0 2.0 217 230
d 1.31375 0 2 cbr 210 ------- 2 0.0 2.0 217 230
r 1.3164 0 2 cbr 210 ------- 2 0.0 2.0 47 47
+ 1.3175 0 2 cbr 210 ------- 2 0.0 2.0 218 231
d 1.3175 0 2 cbr 210 ------- 2 0.0 2.0 218 231
+ 1.32125 0 2 cbr 210 ------- 2 0.0 2.0 219 232
d 1.32125 0 2 cbr 210 ------- 2 0.0 2.0 219 232
- 1.3232 0 2 cbr 210 ------- 2 0.0 2.0 49 49
+ 1.325 0 2 cbr 210 ------- 2 0.0 2.0 220 233
+ 1.32875 0 2 cbr 210 ------- 2 0.0 2.0 221 234
d 1.32875 0 2 cbr 210 ------- 2 0.0 2.0 221 234
+ 1.3325 0 2 cbr 210 ------- 2 0.0 2.0 222 235
d 1.3325 0 2 cbr 210 ------- 2 0.0 2.0 222 235
r 1.3332 0 2 cbr 210 ------- 2 0.0 2.0 48 48
+ 1.33625 0 2 cbr 210 ------- 2 0.0 2.0 223 236
d 1.33625 0 2 cbr 210 ------- 2 0.0 2.0 223 236
+ 1.34 0 2 cbr 210 ------- 2 0.0 2.0 224 237
d 1.34 0 2 cbr 210 ------- 2 0.0 2.0 224 237
- 1.34 0 2 cbr 210 ------- 2 0.0 2.0 50 50
+ 1.34375 0 2 cbr 210 ------- 2 0.0 2.0 225 238
+ 1.3475 0 2 cbr 210 ------- 2 0.0 2.0 226 239
d 1.3475 0 2 cbr 210 ------- 2 0.0 2.0 226 239
r 1.35 0 2 cbr 210 ------- 2 0.0 2.0 49 49
+ 1.35125 0 2 cbr 210 ------- 2 0.0 2.0 227 240
d 1.35125 0 2 cbr 210 ------- 2 0.0 2.0 227 240
+ 1.355 0 2 cbr 210 ------- 2 0.0 2.0 228 241
d 1.355 0 2 cbr 210 ------- 2 0.0 2.0 228 241
- 1.3568 0 2 cbr 210 ------- 2 0.0 2.0 51 51
+ 1.35875 0 2 cbr 210 ------- 2 0.0 2.0 229 242
- 1.3592 1 2 tcp 1040 ------- 2 1.0 2.1 5 199
+ 1.3625 0 2 cbr 210 ------- 2 0.0 2.0 230 243
d 1.3625 0 2 cbr 210 ------- 2 0.0 2.0 230 243
+ 1.36625 0 2 cbr 210 ------- 2 0.0 2.0 231 244
d 1.36625 0 2 cbr 210 ------- 2 0.0 2.0 231 244
r 1.3668 0 2 cbr 210 ------- 2 0.0 2.0 50 50
r 1.3692 1 2 tcp 1040 ------- 2 1.0 2.1 4 175
+ 1.3692 2 1 ack 40 ------- 2 2.1 1.0 4 245
- 1.3692 2 1 ack 40 ------- 2 2.1 1.0 4 245
+ 1.37 0 2 cbr 210 ------- 2 0.0 2.0 232 246
d 1.37 0 2 cbr 210 ------- 2 0.0 2.0 232 246
- 1.3736 0 2 cbr 210 ------- 2 0.0 2.0 52 52
+ 1.37375 0 2 cbr 210 ------- 2 0.0 2.0 233 247
+ 1.3775 0 2 cbr 210 ------- 2 0.0 2.0 234 248
d 1.3775 0 2 cbr 210 ------- 2 0.0 2.0 234 248
+ 1.38125 0 2 cbr 210 ------- 2 0.0 2.0 235 249
d 1.38125 0 2 cbr 210 ------- 2 0.0 2.0 235 249
r 1.3824 2 1 ack 40 ------- 2 2.1 1.0 4 245
+ 1.3824 1 2 tcp 1040 ------- 2 1.0 2.1 9 250
+ 1.3824 1 2 tcp 1040 ------- 2 1.0 2.1 10 251
r 1.3836 0 2 cbr 210 ------- 2 0.0 2.0 51 51
+ 1.385 0 2 cbr 210 ------- 2 0.0 2.0 236 252
d 1.385 0 2 cbr 210 ------- 2 0.0 2.0 236 252
+ 1.38875 0 2 cbr 210 ------- 2 0.0 2.0 237 253
d 1.38875 0 2 cbr 210 ------- 2 0.0 2.0 237 253
- 1.3904 0 2 cbr 210 ------- 2 0.0 2.0 53 53
+ 1.3925 0 2 cbr 210 ------- 2 0.0 2.0 238 254
+ 1.39625 0 2 cbr 210 ------- 2 0.0 2.0 239 255
d 1.39625 0 2 cbr 210 ------- 2 0.0 2.0 239 255
+ 1.4 0 2 cbr 210 ------- 2 0.0 2.0 240 256
d 1.4 0 2 cbr 210 ------- 2 0.0 2.0 240 256
r 1.4004 0 2 cbr 210 ------- 2 0.0 2.0 52 52
+ 1.40375 0 2 cbr 210 ------- 2 0.0 2.0 241 257
d 1.40375 0 2 cbr 210 ------- 2 0.0 2.0 241 257
- 1.4072 0 2 cbr 210 ------- 2 0.0 2.0 54 54
+ 1.4075 0 2 cbr 210 ------- 2 0.0 2.0 242 258
+ 1.41125 0 2 cbr 210 ------- 2 0.0 2.0 243 259
d 1.41125 0 2 cbr 210 ------- 2 0.0 2.0 243 259
+ 1.415 0 2 cbr 210 ------- 2 0.0 2.0 244 260
d 1.415 0 2 cbr 210 ------- 2 0.0 2.0 244 260
r 1.4172 0 2 cbr 210 ------- 2 0.0 2.0 53 53
+ 1.41875 0 2 cbr 210 ------- 2 0.0 2.0 245 261
d 1.41875 0 2 cbr 210 ------- 2 0.0 2.0 245 261
+ 1.4225 0 2 cbr 210 ------- 2 0.0 2.0 246 262
d 1.4225 0 2 cbr 210 ------- 2 0.0 2.0 246 262
- 1.424 0 2 cbr 210 ------- 2 0.0 2.0 55 55
+ 1.42625 0 2 cbr 210 ------- 2 0.0 2.0 247 263
+ 1.43 0 2 cbr 210 ------- 2 0.0 2.0 248 264
d 1.43 0 2 cbr 210 ------- 2 0.0 2.0 248 264
+ 1.43375 0 2 cbr 210 ------- 2 0.0 2.0 249 265
d 1.43375 0 2 cbr 210 ------- 2 0.0 2.0 249 265
r 1.434 0 2 cbr 210 ------- 2 0.0 2.0 54 54
+ 1.4375 0 2 cbr 210 ------- 2 0.0 2.0 250 266
d 1.4375 0 2 cbr 210 ------- 2 0.0 2.0 250 266
- 1.4408 0 2 cbr 210 ------- 2 0.0 2.0 56 56
+ 1.44125 0 2 cbr 210 ------- 2 0.0 2.0 251 267
- 1.4424 1 2 tcp 1040 ------- 2 1.0 2.1 6 200
+ 1.445 0 2 cbr 210 ------- 2 0.0 2.0 252 268
d 1.445 0 2 cbr 210 ------- 2 0.0 2.0 252 268
+ 1.44875 0 2 cbr 210 ------- 2 0.0 2.0 253 269
d 1.44875 0 2 cbr 210 ------- 2 0.0 2.0 253 269
r 1.4508 0 2 cbr 210 ------- 2 0.0 2.0 55 55
r 1.4524 1 2 tcp 1040 ------- 2 1.0 2.1 5 199
+ 1.4524 2 1 ack 40 ------- 2 2.1 1.0 5 270
- 1.4524 2 1 ack 40 ------- 2 2.1 1.0 5 270
+ 1.4525 0 2 cbr 210 ------- 2 0.0 2.0 254 271
d 1.4525 0 2 cbr 210 ------- 2 0.0 2.0 254 271
+ 1.45625 0 2 cbr 210 ------- 2 0.0 2.0 255 272
d 1.45625 0 2 cbr 210 ------- 2 0.0 2.0 255 272
- 1.4576 0 2 cbr 210 ------- 2 0.0 2.0 57 57
+ 1.46 0 2 cbr 210 ------- 2 0.0 2.0 256 273
+ 1.46375 0 2 cbr 210 ------- 2 0.0 2.0 257 274
d 1.46375 0 2 cbr 210 ------- 2 0.0 2.0 257 274
r 1.4656 2 1 ack 40 ------- 2 2.1 1.0 5 270
+ 1.4656 1 2 tcp 1040 ------- 2 1.0 2.1 11 275
+ 1.4656 1 2 tcp 1040 ------- 2 1.0 2.1 12 276
+ 1.4675 0 2 cbr 210 ------- 2 0.0 2.0 258 277
d 1.4675 0 2 cbr 210 ------- 2 0.0 2.0 258 277
r 1.4676 0 2 cbr 210 ------- 2 0.0 2.0 56 56
+ 1.47125 0 2 cbr 210 ------- 2 0.0 2.0 259 278
d 1.47125 0 2 cbr 210 ------- 2 0.0 2.0 259 278
- 1.4744 0 2 cbr 210 ------- 2 0.0 2.0 58 58
+ 1.475 0 2 cbr 210 ------- 2 0.0 2.0 260 279
+ 1.47875 0 2 cbr 210 ------- 2 0.0 2.0 261 280
d 1.47875 0 2 cbr 210 ------- 2 0.0 2.0 261 280
+ 1.4825 0 2 cbr 210 ------- 2 0.0 2.0 262 281
d 1.4825 0 2 cbr 210 ------- 2 0.0 2.0 262 281
r 1.4844 0 2 cbr 210 ------- 2 0.0 2.0 57 57
+ 1.48625 0 2 cbr 210 ------- 2 0.0 2.0 263 282
d 1.48625 0 2 cbr 210 ------- 2 0.0 2.0 263 282
+ 1.49 0 2 cbr 210 ------- 2 0.0 2.0 264 283
d 1.49 0 2 cbr 210 ------- 2 0.0 2.0 264 283
- 1.4912 0 2 cbr 210 ------- 2 0.0 2.0 59 59
+ 1.49375 0 2 cbr 210 ------- 2 0.0 2.0 265 284
+ 1.4975 0 2 cbr 210 ------- 2 0.0 2.0 266 285
d 1.4975 0 2 cbr 210 ------- 2 0.0 2.0 266 285
r 1.5012 0 2 cbr 210 ------- 2 0.0 2.0 58 58
+ 1.50125 0 2 cbr 210 ------- 2 0.0 2.0 267 286
d 1.50125 0 2 cbr 210 ------- 2 0.0 2.0 267 286
+ 1.505 0 2 cbr 210 ------- 2 0.0 2.0 268 287
d 1.505 0 2 cbr 210 ------- 2 0.0 2.0 268 287
- 1.508 0 2 cbr 210 ------- 2 0.0 2.0 60 60
+ 1.50875 0 2 cbr 210 ------- 2 0.0 2.0 269 288
+ 1.5125 0 2 cbr 210 ------- 2 0.0 2.0 270 289
d 1.5125 0 2 cbr 210 ------- 2 0.0 2.0 270 289
+ 1.51625 0 2 cbr 210 ------- 2 0.0 2.0 271 290
d 1.51625 0 2 cbr 210 ------- 2 0.0 2.0 271 290
r 1.518 0 2 cbr 210 ------- 2 0.0 2.0 59 59
+ 1.52 0 2 cbr 210 ------- 2 0.0 2.0 272 291
d 1.52 0 2 cbr 210 ------- 2 0.0 2.0 272 291
+ 1.52375 0 2 cbr 210 ------- 2 0.0 2.0 273 292
d 1.52375 0 2 cbr 210 ------- 2 0.0 2.0 273 292
- 1.5248 0 2 cbr 210 ------- 2 0.0 2.0 61 61
- 1.5256 1 2 tcp 1040 ------- 2 1.0 2.1 7 225
+ 1.5275 0 2 cbr 210 ------- 2 0.0 2.0 274 293
+ 1.53125 0 2 cbr 210 ------- 2 0.0 2.0 275 294
d 1.53125 0 2 cbr 210 ------- 2 0.0 2.0 275 294
r 1.5348 0 2 cbr 210 ------- 2 0.0 2.0 60 60
+ 1.535 0 2 cbr 210 ------- 2 0.0 2.0 276 295
d 1.535 0 2 cbr 210 ------- 2 0.0 2.0 276 295
r 1.5356 1 2 tcp 1040 ------- 2 1.0 2.1 6 200
+ 1.5356 2 1 ack 40 ------- 2 2.1 1.0 6 296
- 1.5356 2 1 ack 40 ------- 2 2.1 1.0 6 296
+ 1.53875 0 2 cbr 210 ------- 2 0.0 2.0 277 297
d 1.53875 0 2 cbr 210 ------- 2 0.0 2.0 277 297
- 1.5416 0 2 cbr 210 ------- 2 0.0 2.0 62 62
+ 1.5425 0 2 cbr 210 ------- 2 0.0 2.0 278 298
+ 1.54625 0 2 cbr 210 ------- 2 0.0 2.0 279 299
d 1.54625 0 2 cbr 210 ------- 2 0.0 2.0 279 299
r 1.5488 2 1 ack 40 ------- 2 2.1 1.0 6 296
+ 1.5488 1 2 tcp 1040 ------- 2 1.0 2.1 13 300
+ 1.5488 1 2 tcp 1040 ------- 2 1.0 2.1 14 301
+ 1.55 0 2 cbr 210 ------- 2 0.0 2.0 280 302
d 1.55 0 2 cbr 210 ------- 2 0.0 2.0 280 302
r 1.5516 0 2 cbr 210 ------- 2 0.0 2.0 61 61
+ 1.55375 0 2 cbr 210 ------- 2 0.0 2.0 281 303
d 1.55375 0 2 cbr 210 ------- 2 0.0 2.0 281 303
+ 1.5575 0 2 cbr 210 ------- 2 0.0 2.0 282 304
d 1.5575 0 2 cbr 210 ------- 2 0.0 2.0 282 304
- 1.5584 0 2 cbr 210 ------- 2 0.0 2.0 63 63
+ 1.56125 0 2 cbr 210 ------- 2 0.0 2.0 283 305
+ 1.565 0 2 cbr 210 ------- 2 0.0 2.0 284 306
d 1.565 0 2 cbr 210 ------- 2 0.0 2.0 284 306
r 1.5684 0 2 cbr 210 ------- 2 0.0 2.0 62 62
+ 1.56875 0 2 cbr 210 ------- 2 0.0 2.0 285 307
d 1.56875 0 2 cbr 210 ------- 2 0.0 2.0 285 307
+ 1.5725 0 2 cbr 210 ------- 2 0.0 2.0 286 308
d 1.5725 0 2 cbr 210 ------- 2 0.0 2.0 286 308
- 1.5752 0 2 cbr 210 ------- 2 0.0 2.0 68 68
+ 1.57625 0 2 cbr 210 ------- 2 0.0 2.0 287 309
+ 1.58 0 2 cbr 210 ------- 2 0.0 2.0 288 310
d 1.58 0 2 cbr 210 ------- 2 0.0 2.0 288 310
+ 1.58375 0 2 cbr 210 ------- 2 0.0 2.0 289 311
d 1.58375 0 2 cbr 210 ------- 2 0.0 2.0 289 311
r 1.5852 0 2 cbr 210 ------- 2 0.0 2.0 63 63
+ 1.5875 0 2 cbr 210 ------- 2 0.0 2.0 290 312
d 1.5875 0 2 cbr 210 ------- 2 0.0 2.0 290 312
+ 1.59125 0 2 cbr 210 ------- 2 0.0 2.0 291 313
d 1.59125 0 2 cbr 210 ------- 2 0.0 2.0 291 313
- 1.592 0 2 cbr 210 ------- 2 0.0 2.0 72 72
+ 1.595 0 2 cbr 210 ------- 2 0.0 2.0 292 314