n -t 0 -s 0 -S DLABEL -l "UDP Source" -L ""
n -t 0 -s 1 -S DLABEL -l "TCP Source" -L ""
n -t 0 -s 2 -S DLABEL -l "TCP & UDP Source" -L ""
V -t * -v 1.0a5 -a 0
A -t * -n 1 -p 0 -o 0x7fffffff -c 30 -a 1
A -t * -h 1 -m 1073741823 -s 0
c -t * -i 1 -n Blue
c -t * -i 2 -n Red
n -t * -a 0 -s 0 -S UP -v circle -c black -i black
n -t * -a 1 -s 1 -S UP -v circle -c black -i black
n -t * -a 2 -s 2 -S UP -v circle -c black -i black
l -t * -s 0 -d 2 -S UP -r 100000 -D 0.01 -c black -o right
l -t * -s 1 -d 2 -S UP -r 100000 -D 0.01 -c black -o down
+ -t 0.5 -s 0 -d 2 -p cbr -e 210 -c 2 -i 0 -a 2 -x {0.0 2.0 0 ------- null}
- -t 0.5 -s 0 -d 2 -p cbr -e 210 -c 2 -i 0 -a 2 -x {0.0 2.0 0 ------- null}
h -t 0.5 -s 0 -d 2 -p cbr -e 210 -c 2 -i 0 -a 2 -x {0.0 2.0 -1 ------- null}
+ -t 0.50375 -s 0 -d 2 -p cbr -e 210 -c 2 -i 1 -a 2 -x {0.0 2.0 1 ------- null}
+ -t 0.5075 -s 0 -d 2 -p cbr -e 210 -c 2 -i 2 -a 2 -x {0.0 2.0 2 ------- null}
+ -t 0.51125 -s 0 -d 2 -p cbr -e 210 -c 2 -i 3 -a 2 -x {0.0 2.0 3 ------- null}
+ -t 0.515 -s 0 -d 2 -p cbr -e 210 -c 2 -i 4 -a 2 -x {0.0 2.0 4 ------- null}
- -t 0.5168 -s 0 -d 2 -p cbr -e 210 -c 2 -i 1 -a 2 -x {0.0 2.0 1 ------- null}
h -t 0.5168 -s 0 -d 2 -p cbr -e 210 -c 2 -i 1 -a 2 -x {0.0 2.0 -1 ------- null}
+ -t 0.51875 -s 0 -d 2 -p cbr -e 210 -c 2 -i 5 -a 2 -x {0.0 2.0 5 ------- null}
+ -t 0.5225 -s 0 -d 2 -p cbr -e 210 -c 2 -i 6 -a 2 -x {0.0 2.0 6 ------- null}
+ -t 0.52625 -s 0 -d 2 -p cbr -e 210 -c 2 -i 7 -a 2 -x {0.0 2.0 7 ------- null}
r -t 0.5268 -s 0 -d 2 -p cbr -e 210 -c 2 -i 0 -a 2 -x {0.0 2.0 0 ------- null}
+ -t 0.53 -s 0 -d 2 -p cbr -e 210 -c 2 -i 8 -a 2 -x {0.0 2.0 8 ------- null}
- -t 0.5336 -s 0 -d 2 -p cbr -e 210 -c 2 -i 2 -a 2 -x {0.0 2.0 2 ------- null}
h -t 0.5336 -s 0 -d 2 -p cbr -e 210 -c 2 -i 2 -a 2 -x {0.0 2.0 -1 ------- null}
+ -t 0.53375 -s 0 -d 2 -p cbr -e 210 -c 2 -i 9 -a 2 -x {0.0 2.0 9 ------- null}
+ -t 0.5375 -s 0 -d 2 -p cbr -e 210 -c 2 -i 10 -a 2 -x {0.0 2.0 10 ------- null}
+ -t 0.54125 -s 0 -d 2 -p cbr -e 210 -c 2 -i 11 -a 2 -x {0.0 2.0 11 ------- null}
r -t 0.5436 -s 0 -d 2 -p cbr -e 210 -c 2 -i 1 -a 2 -x {0.0 2.0 1 ------- null}
+ -t 0.545 -s 0 -d 2 -p cbr -e 210 -c 2 -i 12 -a 2 -x {0.0 2.0 12 ------- null}
+ -t 0.54875 -s 0 -d 2 -p cbr -e 210 -c 2 -i 13 -a 2 -x {0.0 2.0 13 ------- null}
- -t 0.5504 -s 0 -d 2 -p cbr -e 210 -c 2 -i 3 -a 2 -x {0.0 2.0 3 ------- null}
h -t 0.5504 -s 0 -d 2 -p cbr -e 210 -c 2 -i 3 -a 2 -x {0.0 2.0 -1 ------- null}
+ -t 0.5525 -s 0 -d 2 -p cbr -e 210 -c 2 -i 14 -a 2 -x {0.0 2.0 14 ------- null}
+ -t 0.55625 -s 0 -d 2 -p cbr -e 210 -c 2 -i 15 -a 2 -x {0.0 2.0 15 ------- null}
+ -t 0.56 -s 0 -d 2 -p cbr -e 210 -c 2 -i 16 -a 2 -x {0.0 2.0 16 ------- null}
r -t 0.5604 -s 0 -d 2 -p cbr -e 210 -c 2 -i 2 -a 2 -x {0.0 2.0 2 ------- null}
+ -t 0.563750000000001 -s 0 -d 2 -p cbr -e 210 -c 2 -i 17 -a 2 -x {0.0 2.0 17 ------- null}
- -t 0.5672 -s 0 -d 2 -p cbr -e 210 -c 2 -i 4 -a 2 -x {0.0 2.0 4 ------- null}
h -t 0.5672 -s 0 -d 2 -p cbr -e 210 -c 2 -i 4 -a 2 -x {0.0 2.0 -1 ------- null}
+ -t 0.567500000000001 -s 0 -d 2 -p cbr -e 210 -c 2 -i 18 -a 2 -x {0.0 2.0 18 ------- null}
+ -t 0.571250000000001 -s 0 -d 2 -p cbr -e 210 -c 2 -i 19 -a 2 -x {0.0 2.0 19 ------- null}
+ -t 0.575000000000001 -s 0 -d 2 -p cbr -e 210 -c 2 -i 20 -a 2 -x {0.0 2.0 20 ------- null}
r -t 0.5772 -s 0 -d 2 -p cbr -e 210 -c 2 -i 3 -a 2 -x {0.0 2.0 3 ------- null}
+ -t 0.578750000000001 -s 0 -d 2 -p cbr -e 210 -c 2 -i 21 -a 2 -x {0.0 2.0 21 ------- null}
+ -t 0.582500000000001 -s 0 -d 2 -p cbr -e 210 -c 2 -i 22 -a 2 -x {0.0 2.0 22 ------- null}
- -t 0.584 -s 0 -d 2 -p cbr -e 210 -c 2 -i 5 -a 2 -x {0.0 2.0 5 ------- null}
h -t 0.584 -s 0 -d 2 -p cbr -e 210 -c 2 -i 5 -a 2 -x {0.0 2.0 -1 ------- null}
+ -t 0.586250000000001 -s 0 -d 2 -p cbr -e 210 -c 2 -i 23 -a 2 -x {0.0 2.0 23 ------- null}
+ -t 0.590000000000001 -s 0 -d 2 -p cbr -e 210 -c 2 -i 24 -a 2 -x {0.0 2.0 24 ------- null}
+ -t 0.593750000000001 -s 0 -d 2 -p cbr -e 210 -c 2 -i 25 -a 2 -x {0.0 2.0 25 ------- null}
r -t 0.594 -s 0 -d 2 -p cbr -e 210 -c 2 -i 4 -a 2 -x {0.0 2.0 4 ------- null}
+ -t 0.597500000000001 -s 0 -d 2 -p cbr -e 210 -c 2 -i 26 -a 2 -x {0.0 2.0 26 ------- null}
- -t 0.6008 -s 0 -d 2 -p cbr -e 210 -c 2 -i 6 -a 2 -x {0.0 2.0 6 ------- null}
h -t 0.6008 -s 0 -d 2 -p cbr -e 210 -c 2 -i 6 -a 2 -x {0.0 2.0 -1 ------- null}
+ -t 0.601250000000001 -s 0 -d 2 -p cbr -e 210 -c 2 -i 27 -a 2 -x {0.0 2.0 27 ------- null}
+ -t 0.605000000000001 -s 0 -d 2 -p cbr -e 210 -c 2 -i 28 -a 2 -x {0.0 2.0 28 ------- null}
+ -t 0.608750000000001 -s 0 -d 2 -p cbr -e 210 -c 2 -i 29 -a 2 -x {0.0 2.0 29 ------- null}
r -t 0.6108 -s 0 -d 2 -p cbr -e 210 -c 2 -i 5 -a 2 -x {0.0 2.0 5 ------- null}
+ -t 0.612500000000001 -s 0 -d 2 -p cbr -e 210 -c 2 -i 30 -a 2 -x {0.0 2.0 30 ------- null}
+ -t 0.616250000000001 -s 0 -d 2 -p cbr -e 210 -c 2 -i 31 -a 2 -x {0.0 2.0 31 ------- null}
- -t 0.6176 -s 0 -d 2 -p cbr -e 210 -c 2 -i 7 -a 2 -x {0.0 2.0 7 ------- null}
h -t 0.6176 -s 0 -d 2 -p cbr -e 210 -c 2 -i 7 -a 2 -x {0.0 2.0 -1 ------- null}
+ -t 0.620000000000001 -s 0 -d 2 -p cbr -e 210 -c 2 -i 32 -a 2 -x {0.0 2.0 32 ------- null}
+ -t 0.623750000000001 -s 0 -d 2 -p cbr -e 210 -c 2 -i 33 -a 2 -x {0.0 2.0 33 ------- null}
+ -t 0.627500000000001 -s 0 -d 2 -p cbr -e 210 -c 2 -i 34 -a 2 -x {0.0 2.0 34 ------- null}
r -t 0.6276 -s 0 -d 2 -p cbr -e 210 -c 2 -i 6 -a 2 -x {0.0 2.0 6 ------- null}
+ -t 0.631250000000001 -s 0 -d 2 -p cbr -e 210 -c 2 -i 35 -a 2 -x {0.0 2.0 35 ------- null}
- -t 0.6344 -s 0 -d 2 -p cbr -e 210 -c 2 -i 8 -a 2 -x {0.0 2.0 8 ------- null}
h -t 0.6344 -s 0 -d 2 -p cbr -e 210 -c 2 -i 8 -a 2 -x {0.0 2.0 -1 ------- null}
+ -t 0.635000000000001 -s 0 -d 2 -p cbr -e 210 -c 2 -i 36 -a 2 -x {0.0 2.0 36 ------- null}
+ -t 0.638750000000001 -s 0 -d 2 -p cbr -e 210 -c 2 -i 37 -a 2 -x {0.0 2.0 37 ------- null}
+ -t 0.642500000000001 -s 0 -d 2 -p cbr -e 210 -c 2 -i 38 -a 2 -x {0.0 2.0 38 ------- null}
r -t 0.6444 -s 0 -d 2 -p cbr -e 210 -c 2 -i 7 -a 2 -x {0.0 2.0 7 ------- null}
+ -t 0.646250000000001 -s 0 -d 2 -p cbr -e 210 -c 2 -i 39 -a 2 -x {0.0 2.0 39 ------- null}
+ -t 0.650000000000001 -s 0 -d 2 -p cbr -e 210 -c 2 -i 40 -a 2 -x {0.0 2.0 40 ------- null}
- -t 0.6512 -s 0 -d 2 -p cbr -e 210 -c 2 -i 9 -a 2 -x {0.0 2.0 9 ------- null}
h -t 0.6512 -s 0 -d 2 -p cbr -e 210 -c 2 -i 9 -a 2 -x {0.0 2.0 -1 ------- null}
+ -t 0.653750000000001 -s 0 -d 2 -p cbr -e 210 -c 2 -i 41 -a 2 -x {0.0 2.0 41 ------- null}
+ -t 0.657500000000001 -s 0 -d 2 -p cbr -e 210 -c 2 -i 42 -a 2 -x {0.0 2.0 42 ------- null}
r -t 0.6612 -s 0 -d 2 -p cbr -e 210 -c 2 -i 8 -a 2 -x {0.0 2.0 8 ------- null}
+ -t 0.661250000000001 -s 0 -d 2 -p cbr -e 210 -c 2 -i 43 -a 2 -x {0.0 2.0 43 ------- null}
+ -t 0.665000000000001 -s 0 -d 2 -p cbr -e 210 -c 2 -i 44 -a 2 -x {0.0 2.0 44 ------- null}
- -t 0.668 -s 0 -d 2 -p cbr -e 210 -c 2 -i 10 -a 2 -x {0.0 2.0 10 ------- null}
h -t 0.668 -s 0 -d 2 -p cbr -e 210 -c 2 -i 10 -a 2 -x {0.0 2.0 -1 ------- null}
+ -t 0.668750000000001 -s 0 -d 2 -p cbr -e 210 -c 2 -i 45 -a 2 -x {0.0 2.0 45 ------- null}
+ -t 0.672500000000001 -s 0 -d 2 -p cbr -e 210 -c 2 -i 46 -a 2 -x {0.0 2.0 46 ------- null}
+ -t 0.676250000000001 -s 0 -d 2 -p cbr -e 210 -c 2 -i 47 -a 2 -x {0.0 2.0 47 ------- null}
r -t 0.678 -s 0 -d 2 -p cbr -e 210 -c 2 -i 9 -a 2 -x {0.0 2.0 9 ------- null}
+ -t 0.680000000000001 -s 0 -d 2 -p cbr -e 210 -c 2 -i 48 -a 2 -x {0.0 2.0 48 ------- null}
+ -t 0.683750000000002 -s 0 -d 2 -p cbr -e 210 -c 2 -i 49 -a 2 -x {0.0 2.0 49 ------- null}
- -t 0.6848 -s 0 -d 2 -p cbr -e 210 -c 2 -i 11 -a 2 -x {0.0 2.0 11 ------- null}
h -t 0.6848 -s 0 -d 2 -p cbr -e 210 -c 2 -i 11 -a 2 -x {0.0 2.0 -1 ------- null}
+ -t 0.687500000000002 -s 0 -d 2 -p cbr -e 210 -c 2 -i 50 -a 2 -x {0.0 2.0 50 ------- null}
+ -t 0.691250000000002 -s 0 -d 2 -p cbr -e 210 -c 2 -i 51 -a 2 -x {0.0 2.0 51 ------- null}
r -t 0.6948 -s 0 -d 2 -p cbr -e 210 -c 2 -i 10 -a 2 -x {0.0 2.0 10 ------- null}
+ -t 0.695000000000002 -s 0 -d 2 -p cbr -e 210 -c 2 -i 52 -a 2 -x {0.0 2.0 52 ------- null}
+ -t 0.698750000000002 -s 0 -d 2 -p cbr -e 210 -c 2 -i 53 -a 2 -x {0.0 2.0 53 ------- null}
- -t 0.7016 -s 0 -d 2 -p cbr -e 210 -c 2 -i 12 -a 2 -x {0.0 2.0 12 ------- null}
h -t 0.7016 -s 0 -d 2 -p cbr -e 210 -c 2 -i 12 -a 2 -x {0.0 2.0 -1 ------- null}
+ -t 0.702500000000002 -s 0 -d 2 -p cbr -e 210 -c 2 -i 54 -a 2 -x {0.0 2.0 54 ------- null}
+ -t 0.706250000000002 -s 0 -d 2 -p cbr -e 210 -c 2 -i 55 -a 2 -x {0.0 2.0 55 ------- null}
+ -t 0.710000000000002 -s 0 -d 2 -p cbr -e 210 -c 2 -i 56 -a 2 -x {0.0 2.0 56 ------- null}
r -t 0.7116 -s 0 -d 2 -p cbr -e 210 -c 2 -i 11 -a 2 -x {0.0 2.0 11 ------- null}
+ -t 0.713750000000002 -s 0 -d 2 -p cbr -e 210 -c 2 -i 57 -a 2 -x {0.0 2.0 57 ------- null}
+ -t 0.717500000000002 -s 0 -d 2 -p cbr -e 210 -c 2 -i 58 -a 2 -x {0.0 2.0 58 ------- null}
- -t 0.7184 -s 0 -d 2 -p cbr -e 210 -c 2 -i 13 -a 2 -x {0.0 2.0 13 ------- null}
h -t 0.7184 -s 0 -d 2 -p cbr -e 210 -c 2 -i 13 -a 2 -x {0.0 2.0 -1 ------- null}
+ -t 0.721250000000002 -s 0 -d 2 -p cbr -e 210 -c 2 -i 59 -a 2 -x {0.0 2.0 59 ------- null}
+ -t 0.725000000000002 -s 0 -d 2 -p cbr -e 210 -c 2 -i 60 -a 2 -x {0.0 2.0 60 ------- null}
r -t 0.7284 -s 0 -d 2 -p cbr -e 210 -c 2 -i 12 -a 2 -x {0.0 2.0 12 ------- null}
+ -t 0.728750000000002 -s 0 -d 2 -p cbr -e 210 -c 2 -i 61 -a 2 -x {0.0 2.0 61 ------- null}
+ -t 0.732500000000002 -s 0 -d 2 -p cbr -e 210 -c 2 -i 62 -a 2 -x {0.0 2.0 62 ------- null}
- -t 0.735200000000001 -s 0 -d 2 -p cbr -e 210 -c 2 -i 14 -a 2 -x {0.0 2.0 14 ------- null}
h -t 0.735200000000001 -s 0 -d 2 -p cbr -e 210 -c 2 -i 14 -a 2 -x {0.0 2.0 -1 ------- null}
+ -t 0.736250000000002 -s 0 -d 2 -p cbr -e 210 -c 2 -i 63 -a 2 -x {0.0 2.0 63 ------- null}
+ -t 0.740000000000002 -s 0 -d 2 -p cbr -e 210 -c 2 -i 64 -a 2 -x {0.0 2.0 64 ------- null}
d -t 0.740000000000002 -s 0 -d 2 -p cbr -e 210 -c 2 -i 64 -a 2 -x {0.0 2.0 64 ------- null}
+ -t 0.743750000000002 -s 0 -d 2 -p cbr -e 210 -c 2 -i 65 -a 2 -x {0.0 2.0 65 ------- null}
d -t 0.743750000000002 -s 0 -d 2 -p cbr -e 210 -c 2 -i 65 -a 2 -x {0.0 2.0 65 ------- null}
r -t 0.745200000000001 -s 0 -d 2 -p cbr -e 210 -c 2 -i 13 -a 2 -x {0.0 2.0 13 ------- null}
+ -t 0.747500000000002 -s 0 -d 2 -p cbr -e 210 -c 2 -i 66 -a 2 -x {0.0 2.0 66 ------- null}
d -t 0.747500000000002 -s 0 -d 2 -p cbr -e 210 -c 2 -i 66 -a 2 -x {0.0 2.0 66 ------- null}
+ -t 0.751250000000002 -s 0 -d 2 -p cbr -e 210 -c 2 -i 67 -a 2 -x {0.0 2.0 67 ------- null}
d -t 0.751250000000002 -s 0 -d 2 -p cbr -e 210 -c 2 -i 67 -a 2 -x {0.0 2.0 67 ------- null}
- -t 0.752000000000001 -s 0 -d 2 -p cbr -e 210 -c 2 -i 15 -a 2 -x {0.0 2.0 15 ------- null}
h -t 0.752000000000001 -s 0 -d 2 -p cbr -e 210 -c 2 -i 15 -a 2 -x {0.0 2.0 -1 ------- null}
+ -t 0.755000000000002 -s 0 -d 2 -p cbr -e 210 -c 2 -i 68 -a 2 -x {0.0 2.0 68 ------- null}
+ -t 0.758750000000002 -s 0 -d 2 -p cbr -e 210 -c 2 -i 69 -a 2 -x {0.0 2.0 69 ------- null}
d -t 0.758750000000002 -s 0 -d 2 -p cbr -e 210 -c 2 -i 69 -a 2 -x {0.0 2.0 69 ------- null}
r -t 0.762000000000001 -s 0 -d 2 -p cbr -e 210 -c 2 -i 14 -a 2 -x {0.0 2.0 14 ------- null}
+ -t 0.762500000000002 -s 0 -d 2 -p cbr -e 210 -c 2 -i 70 -a 2 -x {0.0 2.0 70 ------- null}
d -t 0.762500000000002 -s 0 -d 2 -p cbr -e 210 -c 2 -i 70 -a 2 -x {0.0 2.0 70 ------- null}
+ -t 0.766250000000002 -s 0 -d 2 -p cbr -e 210 -c 2 -i 71 -a 2 -x {0.0 2.0 71 ------- null}
d -t 0.766250000000002 -s 0 -d 2 -p cbr -e 210 -c 2 -i 71 -a 2 -x {0.0 2.0 71 ------- null}
- -t 0.768800000000001 -s 0 -d 2 -p cbr -e 210 -c 2 -i 16 -a 2 -x {0.0 2.0 16 ------- null}
h -t 0.768800000000001 -s 0 -d 2 -p cbr -e 210 -c 2 -i 16 -a 2 -x {0.0 2.0 -1 ------- null}
+ -t 0.770000000000002 -s 0 -d 2 -p cbr -e 210 -c 2 -i 72 -a 2 -x {0.0 2.0 72 ------- null}
+ -t 0.773750000000002 -s 0 -d 2 -p cbr -e 210 -c 2 -i 73 -a 2 -x {0.0 2.0 73 ------- null}
d -t 0.773750000000002 -s 0 -d 2 -p cbr -e 210 -c 2 -i 73 -a 2 -x {0.0 2.0 73 ------- null}
+ -t 0.777500000000002 -s 0 -d 2 -p cbr -e 210 -c 2 -i 74 -a 2 -x {0.0 2.0 74 ------- null}
d -t 0.777500000000002 -s 0 -d 2 -p cbr -e 210 -c 2 -i 74 -a 2 -x {0.0 2.0 74 ------- null}
r -t 0.778800000000001 -s 0 -d 2 -p cbr -e 210 -c 2 -i 15 -a 2 -x {0.0 2.0 15 ------- null}
+ -t 0.781250000000002 -s 0 -d 2 -p cbr -e 210 -c 2 -i 75 -a 2 -x {0.0 2.0 75 ------- null}
d -t 0.781250000000002 -s 0 -d 2 -p cbr -e 210 -c 2 -i 75 -a 2 -x {0.0 2.0 75 ------- null}
+ -t 0.785000000000002 -s 0 -d 2 -p cbr -e 210 -c 2 -i 76 -a 2 -x {0.0 2.0 76 ------- null}
d -t 0.785000000000002 -s 0 -d 2 -p cbr -e 210 -c 2 -i 76 -a 2 -x {0.0 2.0 76 ------- null}
- -t 0.785600000000001 -s 0 -d 2 -p cbr -e 210 -c 2 -i 17 -a 2 -x {0.0 2.0 17 ------- null}
h -t 0.785600000000001 -s 0 -d 2 -p cbr -e 210 -c 2 -i 17 -a 2 -x {0.0 2.0 -1 ------- null}
+ -t 0.788750000000002 -s 0 -d 2 -p cbr -e 210 -c 2 -i 77 -a 2 -x {0.0 2.0 77 ------- null}
+ -t 0.792500000000002 -s 0 -d 2 -p cbr -e 210 -c 2 -i 78 -a 2 -x {0.0 2.0 78 ------- null}
d -t 0.792500000000002 -s 0 -d 2 -p cbr -e 210 -c 2 -i 78 -a 2 -x {0.0 2.0 78 ------- null}
r -t 0.795600000000001 -s 0 -d 2 -p cbr -e 210 -c 2 -i 16 -a 2 -x {0.0 2.0 16 ------- null}
+ -t 0.796250000000002 -s 0 -d 2 -p cbr -e 210 -c 2 -i 79 -a 2 -x {0.0 2.0 79 ------- null}
d -t 0.796250000000002 -s 0 -d 2 -p cbr -e 210 -c 2 -i 79 -a 2 -x {0.0 2.0 79 ------- null}
+ -t 0.800000000000002 -s 0 -d 2 -p cbr -e 210 -c 2 -i 80 -a 2 -x {0.0 2.0 80 ------- null}
d -t 0.800000000000002 -s 0 -d 2 -p cbr -e 210 -c 2 -i 80 -a 2 -x {0.0 2.0 80 ------- null}
- -t 0.802400000000001 -s 0 -d 2 -p cbr -e 210 -c 2 -i 18 -a 2 -x {0.0 2.0 18 ------- null}
h -t 0.802400000000001 -s 0 -d 2 -p cbr -e 210 -c 2 -i 18 -a 2 -x {0.0 2.0 -1 ------- null}
+ -t 0.803750000000003 -s 0 -d 2 -p cbr -e 210 -c 2 -i 81 -a 2 -x {0.0 2.0 81 ------- null}
+ -t 0.807500000000003 -s 0 -d 2 -p cbr -e 210 -c 2 -i 82 -a 2 -x {0.0 2.0 82 ------- null}
d -t 0.807500000000003 -s 0 -d 2 -p cbr -e 210 -c 2 -i 82 -a 2 -x {0.0 2.0 82 ------- null}
+ -t 0.811250000000003 -s 0 -d 2 -p cbr -e 210 -c 2 -i 83 -a 2 -x {0.0 2.0 83 ------- null}
d -t 0.811250000000003 -s 0 -d 2 -p cbr -e 210 -c 2 -i 83 -a 2 -x {0.0 2.0 83 ------- null}
r -t 0.812400000000001 -s 0 -d 2 -p cbr -e 210 -c 2 -i 17 -a 2 -x {0.0 2.0 17 ------- null}
+ -t 0.815000000000003 -s 0 -d 2 -p cbr -e 210 -c 2 -i 84 -a 2 -x {0.0 2.0 84 ------- null}
d -t 0.815000000000003 -s 0 -d 2 -p cbr -e 210 -c 2 -i 84 -a 2 -x {0.0 2.0 84 ------- null}
+ -t 0.818750000000003 -s 0 -d 2 -p cbr -e 210 -c 2 -i 85 -a 2 -x {0.0 2.0 85 ------- null}
d -t 0.818750000000003 -s 0 -d 2 -p cbr -e 210 -c 2 -i 85 -a 2 -x {0.0 2.0 85 ------- null}
- -t 0.819200000000001 -s 0 -d 2 -p cbr -e 210 -c 2 -i 19 -a 2 -x {0.0 2.0 19 ------- null}
h -t 0.819200000000001 -s 0 -d 2 -p cbr -e 210 -c 2 -i 19 -a 2 -x {0.0 2.0 -1 ------- null}
+ -t 0.822500000000003 -s 0 -d 2 -p cbr -e 210 -c 2 -i 86 -a 2 -x {0.0 2.0 86 ------- null}
+ -t 0.826250000000003 -s 0 -d 2 -p cbr -e 210 -c 2 -i 87 -a 2 -x {0.0 2.0 87 ------- null}
d -t 0.826250000000003 -s 0 -d 2 -p cbr -e 210 -c 2 -i 87 -a 2 -x {0.0 2.0 87 ------- null}
r -t 0.829200000000001 -s 0 -d 2 -p cbr -e 210 -c 2 -i 18 -a 2 -x {0.0 2.0 18 ------- null}
+ -t 0.830000000000003 -s 0 -d 2 -p cbr -e 210 -c 2 -i 88 -a 2 -x {0.0 2.0 88 ------- null}
d -t 0.830000000000003 -s 0 -d 2 -p cbr -e 210 -c 2 -i 88 -a 2 -x {0.0 2.0 88 ------- null}
+ -t 0.833750000000003 -s 0 -d 2 -p cbr -e 210 -c 2 -i 89 -a 2 -x {0.0 2.0 89 ------- null}
d -t 0.833750000000003 -s 0 -d 2 -p cbr -e 210 -c 2 -i 89 -a 2 -x {0.0 2.0 89 ------- null}
- -t 0.836000000000001 -s 0 -d 2 -p cbr -e 210 -c 2 -i 20 -a 2 -x {0.0 2.0 20 ------- null}
h -t 0.836000000000001 -s 0 -d 2 -p cbr -e 210 -c 2 -i 20 -a 2 -x {0.0 2.0 -1 ------- null}
+ -t 0.837500000000003 -s 0 -d 2 -p cbr -e 210 -c 2 -i 90 -a 2 -x {0.0 2.0 90 ------- null}
+ -t 0.841250000000003 -s 0 -d 2 -p cbr -e 210 -c 2 -i 91 -a 2 -x {0.0 2.0 91 ------- null}
d -t 0.841250000000003 -s 0 -d 2 -p cbr -e 210 -c 2 -i 91 -a 2 -x {0.0 2.0 91 ------- null}
+ -t 0.845000000000003 -s 0 -d 2 -p cbr -e 210 -c 2 -i 92 -a 2 -x {0.0 2.0 92 ------- null}
d -t 0.845000000000003 -s 0 -d 2 -p cbr -e 210 -c 2 -i 92 -a 2 -x {0.0 2.0 92 ------- null}
r -t 0.846000000000001 -s 0 -d 2 -p cbr -e 210 -c 2 -i 19 -a 2 -x {0.0 2.0 19 ------- null}
+ -t 0.848750000000003 -s 0 -d 2 -p cbr -e 210 -c 2 -i 93 -a 2 -x {0.0 2.0 93 ------- null}
d -t 0.848750000000003 -s 0 -d 2 -p cbr -e 210 -c 2 -i 93 -a 2 -x {0.0 2.0 93 ------- null}
+ -t 0.852500000000003 -s 0 -d 2 -p cbr -e 210 -c 2 -i 94 -a 2 -x {0.0 2.0 94 ------- null}
d -t 0.852500000000003 -s 0 -d 2 -p cbr -e 210 -c 2 -i 94 -a 2 -x {0.0 2.0 94 ------- null}
- -t 0.852800000000001 -s 0 -d 2 -p cbr -e 210 -c 2 -i 21 -a 2 -x {0.0 2.0 21 ------- null}
h -t 0.852800000000001 -s 0 -d 2 -p cbr -e 210 -c 2 -i 21 -a 2 -x {0.0 2.0 -1 ------- null}
+ -t 0.856250000000003 -s 0 -d 2 -p cbr -e 210 -c 2 -i 95 -a 2 -x {0.0 2.0 95 ------- null}
+ -t 0.860000000000003 -s 0 -d 2 -p cbr -e 210 -c 2 -i 96 -a 2 -x {0.0 2.0 96 ------- null}
d -t 0.860000000000003 -s 0 -d 2 -p cbr -e 210 -c 2 -i 96 -a 2 -x {0.0 2.0 96 ------- null}
r -t 0.862800000000001 -s 0 -d 2 -p cbr -e 210 -c 2 -i 20 -a 2 -x {0.0 2.0 20 ------- null}
+ -t 0.863750000000003 -s 0 -d 2 -p cbr -e 210 -c 2 -i 97 -a 2 -x {0.0 2.0 97 ------- null}
d -t 0.863750000000003 -s 0 -d 2 -p cbr -e 210 -c 2 -i 97 -a 2 -x {0.0 2.0 97 ------- null}
+ -t 0.867500000000003 -s 0 -d 2 -p cbr -e 210 -c 2 -i 98 -a 2 -x {0.0 2.0 98 ------- null}
d -t 0.867500000000003 -s 0 -d 2 -p cbr -e 210 -c 2 -i 98 -a 2 -x {0.0 2.0 98 ------- null}
- -t 0.869600000000001 -s 0 -d 2 -p cbr -e 210 -c 2 -i 22 -a 2 -x {0.0 2.0 22 ------- null}
h -t 0.869600000000001 -s 0 -d 2 -p cbr -e 210 -c 2 -i 22 -a 2 -x {0.0 2.0 -1 ------- null}
+ -t 0.871250000000003 -s 0 -d 2 -p cbr -e 210 -c 2 -i 99 -a 2 -x {0.0 2.0 99 ------- null}
+ -t 0.875000000000003 -s 0 -d 2 -p cbr -e 210 -c 2 -i 100 -a 2 -x {0.0 2.0 100 ------- null}
d -t 0.875000000000003 -s 0 -d 2 -p cbr -e 210 -c 2 -i 100 -a 2 -x {0.0 2.0 100 ------- null}
+ -t 0.878750000000003 -s 0 -d 2 -p cbr -e 210 -c 2 -i 101 -a 2 -x {0.0 2.0 101 ------- null}
d -t 0.878750000000003 -s 0 -d 2 -p cbr -e 210 -c 2 -i 101 -a 2 -x {0.0 2.0 101 ------- null}
r -t 0.879600000000001 -s 0 -d 2 -p cbr -e 210 -c 2 -i 21 -a 2 -x {0.0 2.0 21 ------- null}
+ -t 0.882500000000003 -s 0 -d 2 -p cbr -e 210 -c 2 -i 102 -a 2 -x {0.0 2.0 102 ------- null}
d -t 0.882500000000003 -s 0 -d 2 -p cbr -e 210 -c 2 -i 102 -a 2 -x {0.0 2.0 102 ------- null}
+ -t 0.886250000000003 -s 0 -d 2 -p cbr -e 210 -c 2 -i 103 -a 2 -x {0.0 2.0 103 ------- null}
d -t 0.886250000000003 -s 0 -d 2 -p cbr -e 210 -c 2 -i 103 -a 2 -x {0.0 2.0 103 ------- null}
- -t 0.886400000000001 -s 0 -d 2 -p cbr -e 210 -c 2 -i 23 -a 2 -x {0.0 2.0 23 ------- null}
h -t 0.886400000000001 -s 0 -d 2 -p cbr -e 210 -c 2 -i 23 -a 2 -x {0.0 2.0 -1 ------- null}
+ -t 0.890000000000003 -s 0 -d 2 -p cbr -e 210 -c 2 -i 104 -a 2 -x {0.0 2.0 104 ------- null}
+ -t 0.893750000000003 -s 0 -d 2 -p cbr -e 210 -c 2 -i 105 -a 2 -x {0.0 2.0 105 ------- null}
d -t 0.893750000000003 -s 0 -d 2 -p cbr -e 210 -c 2 -i 105 -a 2 -x {0.0 2.0 105 ------- null}
r -t 0.896400000000001 -s 0 -d 2 -p cbr -e 210 -c 2 -i 22 -a 2 -x {0.0 2.0 22 ------- null}
+ -t 0.897500000000003 -s 0 -d 2 -p cbr -e 210 -c 2 -i 106 -a 2 -x {0.0 2.0 106 ------- null}
d -t 0.897500000000003 -s 0 -d 2 -p cbr -e 210 -c 2 -i 106 -a 2 -x {0.0 2.0 106 ------- null}
+ -t 0.901250000000003 -s 0 -d 2 -p cbr -e 210 -c 2 -i 107 -a 2 -x {0.0 2.0 107 ------- null}
d -t 0.901250000000003 -s 0 -d 2 -p cbr -e 210 -c 2 -i 107 -a 2 -x {0.0 2.0 107 ------- null}
- -t 0.903200000000001 -s 0 -d 2 -p cbr -e 210 -c 2 -i 24 -a 2 -x {0.0 2.0 24 ------- null}
h -t 0.903200000000001 -s 0 -d 2 -p cbr -e 210 -c 2 -i 24 -a 2 -x {0.0 2.0 -1 ------- null}
+ -t 0.905000000000003 -s 0 -d 2 -p cbr -e 210 -c 2 -i 108 -a 2 -x {0.0 2.0 108 ------- null}
+ -t 0.908750000000003 -s 0 -d 2 -p cbr -e 210 -c 2 -i 109 -a 2 -x {0.0 2.0 109 ------- null}
d -t 0.908750000000003 -s 0 -d 2 -p cbr -e 210 -c 2 -i 109 -a 2 -x {0.0 2.0 109 ------- null}
+ -t 0.912500000000003 -s 0 -d 2 -p cbr -e 210 -c 2 -i 110 -a 2 -x {0.0 2.0 110 ------- null}
d -t 0.912500000000003 -s 0 -d 2 -p cbr -e 210 -c 2 -i 110 -a 2 -x {0.0 2.0 110 ------- null}
r -t 0.913200000000001 -s 0 -d 2 -p cbr -e 210 -c 2 -i 23 -a 2 -x {0.0 2.0 23 ------- null}
+ -t 0.916250000000003 -s 0 -d 2 -p cbr -e 210 -c 2 -i 111 -a 2 -x {0.0 2.0 111 ------- null}
d -t 0.916250000000003 -s 0 -d 2 -p cbr -e 210 -c 2 -i 111 -a 2 -x {0.0 2.0 111 ------- null}
- -t 0.920000000000001 -s 0 -d 2 -p cbr -e 210 -c 2 -i 25 -a 2 -x {0.0 2.0 25 ------- null}
h -t 0.920000000000001 -s 0 -d 2 -p cbr -e 210 -c 2 -i 25 -a 2 -x {0.0 2.0 -1 ------- null}
+ -t 0.920000000000003 -s 0 -d 2 -p cbr -e 210 -c 2 -i 112 -a 2 -x {0.0 2.0 112 ------- null}
+ -t 0.923750000000004 -s 0 -d 2 -p cbr -e 210 -c 2 -i 113 -a 2 -x {0.0 2.0 113 ------- null}
d -t 0.923750000000004 -s 0 -d 2 -p cbr -e 210 -c 2 -i 113 -a 2 -x {0.0 2.0 113 ------- null}
+ -t 0.927500000000004 -s 0 -d 2 -p cbr -e 210 -c 2 -i 114 -a 2 -x {0.0 2.0 114 ------- null}
d -t 0.927500000000004 -s 0 -d 2 -p cbr -e 210 -c 2 -i 114 -a 2 -x {0.0 2.0 114 ------- null}
r -t 0.930000000000001 -s 0 -d 2 -p cbr -e 210 -c 2 -i 24 -a 2 -x {0.0 2.0 24 ------- null}
+ -t 0.931250000000004 -s 0 -d 2 -p cbr -e 210 -c 2 -i 115 -a 2 -x {0.0 2.0 115 ------- null}
d -t 0.931250000000004 -s 0 -d 2 -p cbr -e 210 -c 2 -i 115 -a 2 -x {0.0 2.0 115 ------- null}
+ -t 0.935000000000004 -s 0 -d 2 -p cbr -e 210 -c 2 -i 116 -a 2 -x {0.0 2.0 116 ------- null}
d -t 0.935000000000004 -s 0 -d 2 -p cbr -e 210 -c 2 -i 116 -a 2 -x {0.0 2.0 116 ------- null}
- -t 0.936800000000001 -s 0 -d 2 -p cbr -e 210 -c 2 -i 26 -a 2 -x {0.0 2.0 26 ------- null}
h -t 0.936800000000001 -s 0 -d 2 -p cbr -e 210 -c 2 -i 26 -a 2 -x {0.0 2.0 -1 ------- null}
+ -t 0.938750000000004 -s 0 -d 2 -p cbr -e 210 -c 2 -i 117 -a 2 -x {0.0 2.0 117 ------- null}
+ -t 0.942500000000004 -s 0 -d 2 -p cbr -e 210 -c 2 -i 118 -a 2 -x {0.0 2.0 118 ------- null}
d -t 0.942500000000004 -s 0 -d 2 -p cbr -e 210 -c 2 -i 118 -a 2 -x {0.0 2.0 118 ------- null}
+ -t 0.946250000000004 -s 0 -d 2 -p cbr -e 210 -c 2 -i 119 -a 2 -x {0.0 2.0 119 ------- null}
d -t 0.946250000000004 -s 0 -d 2 -p cbr -e 210 -c 2 -i 119 -a 2 -x {0.0 2.0 119 ------- null}
r -t 0.946800000000001 -s 0 -d 2 -p cbr -e 210 -c 2 -i 25 -a 2 -x {0.0 2.0 25 ------- null}
+ -t 0.950000000000004 -s 0 -d 2 -p cbr -e 210 -c 2 -i 120 -a 2 -x {0.0 2.0 120 ------- null}
d -t 0.950000000000004 -s 0 -d 2 -p cbr -e 210 -c 2 -i 120 -a 2 -x {0.0 2.0 120 ------- null}
- -t 0.953600000000001 -s 0 -d 2 -p cbr -e 210 -c 2 -i 27 -a 2 -x {0.0 2.0 27 ------- null}
h -t 0.953600000000001 -s 0 -d 2 -p cbr -e 210 -c 2 -i 27 -a 2 -x {0.0 2.0 -1 ------- null}
+ -t 0.953750000000004 -s 0 -d 2 -p cbr -e 210 -c 2 -i 121 -a 2 -x {0.0 2.0 121 ------- null}
+ -t 0.957500000000004 -s 0 -d 2 -p cbr -e 210 -c 2 -i 122 -a 2 -x {0.0 2.0 122 ------- null}
d -t 0.957500000000004 -s 0 -d 2 -p cbr -e 210 -c 2 -i 122 -a 2 -x {0.0 2.0 122 ------- null}
+ -t 0.961250000000004 -s 0 -d 2 -p cbr -e 210 -c 2 -i 123 -a 2 -x {0.0 2.0 123 ------- null}
d -t 0.961250000000004 -s 0 -d 2 -p cbr -e 210 -c 2 -i 123 -a 2 -x {0.0 2.0 123 ------- null}
r -t 0.963600000000001 -s 0 -d 2 -p cbr -e 210 -c 2 -i 26 -a 2 -x {0.0 2.0 26 ------- null}
+ -t 0.965000000000004 -s 0 -d 2 -p cbr -e 210 -c 2 -i 124 -a 2 -x {0.0 2.0 124 ------- null}
d -t 0.965000000000004 -s 0 -d 2 -p cbr -e 210 -c 2 -i 124 -a 2 -x {0.0 2.0 124 ------- null}
+ -t 0.968750000000004 -s 0 -d 2 -p cbr -e 210 -c 2 -i 125 -a 2 -x {0.0 2.0 125 ------- null}
d -t 0.968750000000004 -s 0 -d 2 -p cbr -e 210 -c 2 -i 125 -a 2 -x {0.0 2.0 125 ------- null}
- -t 0.970400000000001 -s 0 -d 2 -p cbr -e 210 -c 2 -i 28 -a 2 -x {0.0 2.0 28 ------- null}
h -t 0.970400000000001 -s 0 -d 2 -p cbr -e 210 -c 2 -i 28 -a 2 -x {0.0 2.0 -1 ------- null}
+ -t 0.972500000000004 -s 0 -d 2 -p cbr -e 210 -c 2 -i 126 -a 2 -x {0.0 2.0 126 ------- null}
+ -t 0.976250000000004 -s 0 -d 2 -p cbr -e 210 -c 2 -i 127 -a 2 -x {0.0 2.0 127 ------- null}
d -t 0.976250000000004 -s 0 -d 2 -p cbr -e 210 -c 2 -i 127 -a 2 -x {0.0 2.0 127 ------- null}
+ -t 0.980000000000004 -s 0 -d 2 -p cbr -e 210 -c 2 -i 128 -a 2 -x {0.0 2.0 128 ------- null}
d -t 0.980000000000004 -s 0 -d 2 -p cbr -e 210 -c 2 -i 128 -a 2 -x {0.0 2.0 128 ------- null}
r -t 0.980400000000001 -s 0 -d 2 -p cbr -e 210 -c 2 -i 27 -a 2 -x {0.0 2.0 27 ------- null}
+ -t 0.983750000000004 -s 0 -d 2 -p cbr -e 210 -c 2 -i 129 -a 2 -x {0.0 2.0 129 ------- null}
d -t 0.983750000000004 -s 0 -d 2 -p cbr -e 210 -c 2 -i 129 -a 2 -x {0.0 2.0 129 ------- null}
- -t 0.987200000000001 -s 0 -d 2 -p cbr -e 210 -c 2 -i 29 -a 2 -x {0.0 2.0 29 ------- null}
h -t 0.987200000000001 -s 0 -d 2 -p cbr -e 210 -c 2 -i 29 -a 2 -x {0.0 2.0 -1 ------- null}
+ -t 0.987500000000004 -s 0 -d 2 -p cbr -e 210 -c 2 -i 130 -a 2 -x {0.0 2.0 130 ------- null}
+ -t 0.991250000000004 -s 0 -d 2 -p cbr -e 210 -c 2 -i 131 -a 2 -x {0.0 2.0 131 ------- null}
d -t 0.991250000000004 -s 0 -d 2 -p cbr -e 210 -c 2 -i 131 -a 2 -x {0.0 2.0 131 ------- null}
+ -t 0.995000000000004 -s 0 -d 2 -p cbr -e 210 -c 2 -i 132 -a 2 -x {0.0 2.0 132 ------- null}
d -t 0.995000000000004 -s 0 -d 2 -p cbr -e 210 -c 2 -i 132 -a 2 -x {0.0 2.0 132 ------- null}
r -t 0.997200000000001 -s 0 -d 2 -p cbr -e 210 -c 2 -i 28 -a 2 -x {0.0 2.0 28 ------- null}
+ -t 0.998750000000004 -s 0 -d 2 -p cbr -e 210 -c 2 -i 133 -a 2 -x {0.0 2.0 133 ------- null}
d -t 0.998750000000004 -s 0 -d 2 -p cbr -e 210 -c 2 -i 133 -a 2 -x {0.0 2.0 133 ------- null}
+ -t 1 -s 1 -d 2 -p tcp -e 40 -c 2 -i 134 -a 2 -x {1.0 2.1 0 ------- null}
- -t 1 -s 1 -d 2 -p tcp -e 40 -c 2 -i 134 -a 2 -x {1.0 2.1 0 ------- null}
h -t 1 -s 1 -d 2 -p tcp -e 40 -c 2 -i 134 -a 2 -x {1.0 2.1 -1 ------- null}
+ -t 1.0025 -s 0 -d 2 -p cbr -e 210 -c 2 -i 135 -a 2 -x {0.0 2.0 134 ------- null}
d -t 1.0025 -s 0 -d 2 -p cbr -e 210 -c 2 -i 135 -a 2 -x {0.0 2.0 134 ------- null}
- -t 1.004 -s 0 -d 2 -p cbr -e 210 -c 2 -i 30 -a 2 -x {0.0 2.0 30 ------- null}
h -t 1.004 -s 0 -d 2 -p cbr -e 210 -c 2 -i 30 -a 2 -x {0.0 2.0 -1 ------- null}
+ -t 1.00625 -s 0 -d 2 -p cbr -e 210 -c 2 -i 136 -a 2 -x {0.0 2.0 135 ------- null}
+ -t 1.01 -s 0 -d 2 -p cbr -e 210 -c 2 -i 137 -a 2 -x {0.0 2.0 136 ------- null}
d -t 1.01 -s 0 -d 2 -p cbr -e 210 -c 2 -i 137 -a 2 -x {0.0 2.0 136 ------- null}
r -t 1.0132 -s 1 -d 2 -p tcp -e 40 -c 2 -i 134 -a 2 -x {1.0 2.1 0 ------- null}
+ -t 1.0132 -s 2 -d 1 -p ack -e 40 -c 2 -i 138 -a 2 -x {2.1 1.0 0 ------- null}
- -t 1.0132 -s 2 -d 1 -p ack -e 40 -c 2 -i 138 -a 2 -x {2.1 1.0 0 ------- null}
h -t 1.0132 -s 2 -d 1 -p ack -e 40 -c 2 -i 138 -a 2 -x {2.1 1.0 -1 ------- null}
+ -t 1.01375 -s 0 -d 2 -p cbr -e 210 -c 2 -i 139 -a 2 -x {0.0 2.0 137 ------- null}
d -t 1.01375 -s 0 -d 2 -p cbr -e 210 -c 2 -i 139 -a 2 -x {0.0 2.0 137 ------- null}
r -t 1.014 -s 0 -d 2 -p cbr -e 210 -c 2 -i 29 -a 2 -x {0.0 2.0 29 ------- null}
+ -t 1.0175 -s 0 -d 2 -p cbr -e 210 -c 2 -i 140 -a 2 -x {0.0 2.0 138 ------- null}
d -t 1.0175 -s 0 -d 2 -p cbr -e 210 -c 2 -i 140 -a 2 -x {0.0 2.0 138 ------- null}
- -t 1.0208 -s 0 -d 2 -p cbr -e 210 -c 2 -i 31 -a 2 -x {0.0 2.0 31 ------- null}
h -t 1.0208 -s 0 -d 2 -p cbr -e 210 -c 2 -i 31 -a 2 -x {0.0 2.0 -1 ------- null}
+ -t 1.02125 -s 0 -d 2 -p cbr -e 210 -c 2 -i 141 -a 2 -x {0.0 2.0 139 ------- null}
+ -t 1.025 -s 0 -d 2 -p cbr -e 210 -c 2 -i 142 -a 2 -x {0.0 2.0 140 ------- null}
d -t 1.025 -s 0 -d 2 -p cbr -e 210 -c 2 -i 142 -a 2 -x {0.0 2.0 140 ------- null}
r -t 1.0264 -s 2 -d 1 -p ack -e 40 -c 2 -i 138 -a 2 -x {2.1 1.0 0 ------- null}
+ -t 1.0264 -s 1 -d 2 -p tcp -e 1040 -c 2 -i 143 -a 2 -x {1.0 2.1 1 ------- null}
- -t 1.0264 -s 1 -d 2 -p tcp -e 1040 -c 2 -i 143 -a 2 -x {1.0 2.1 1 ------- null}
h -t 1.0264 -s 1 -d 2 -p tcp -e 1040 -c 2 -i 143 -a 2 -x {1.0 2.1 -1 ------- null}
+ -t 1.0264 -s 1 -d 2 -p tcp -e 1040 -c 2 -i 144 -a 2 -x {1.0 2.1 2 ------- null}
+ -t 1.02875 -s 0 -d 2 -p cbr -e 210 -c 2 -i 145 -a 2 -x {0.0 2.0 141 ------- null}
d -t 1.02875 -s 0 -d 2 -p cbr -e 210 -c 2 -i 145 -a 2 -x {0.0 2.0 141 ------- null}
r -t 1.0308 -s 0 -d 2 -p cbr -e 210 -c 2 -i 30 -a 2 -x {0.0 2.0 30 ------- null}
+ -t 1.0325 -s 0 -d 2 -p cbr -e 210 -c 2 -i 146 -a 2 -x {0.0 2.0 142 ------- null}
d -t 1.0325 -s 0 -d 2 -p cbr -e 210 -c 2 -i 146 -a 2 -x {0.0 2.0 142 ------- null}
+ -t 1.03625 -s 0 -d 2 -p cbr -e 210 -c 2 -i 147 -a 2 -x {0.0 2.0 143 ------- null}
d -t 1.03625 -s 0 -d 2 -p cbr -e 210 -c 2 -i 147 -a 2 -x {0.0 2.0 143 ------- null}
- -t 1.0376 -s 0 -d 2 -p cbr -e 210 -c 2 -i 32 -a 2 -x {0.0 2.0 32 ------- null}
h -t 1.0376 -s 0 -d 2 -p cbr -e 210 -c 2 -i 32 -a 2 -x {0.0 2.0 -1 ------- null}
+ -t 1.04 -s 0 -d 2 -p cbr -e 210 -c 2 -i 148 -a 2 -x {0.0 2.0 144 ------- null}
+ -t 1.04375 -s 0 -d 2 -p cbr -e 210 -c 2 -i 149 -a 2 -x {0.0 2.0 145 ------- null}
d -t 1.04375 -s 0 -d 2 -p cbr -e 210 -c 2 -i 149 -a 2 -x {0.0 2.0 145 ------- null}
+ -t 1.0475 -s 0 -d 2 -p cbr -e 210 -c 2 -i 150 -a 2 -x {0.0 2.0 146 ------- null}
d -t 1.0475 -s 0 -d 2 -p cbr -e 210 -c 2 -i 150 -a 2 -x {0.0 2.0 146 ------- null}
r -t 1.0476 -s 0 -d 2 -p cbr -e 210 -c 2 -i 31 -a 2 -x {0.0 2.0 31 ------- null}
+ -t 1.05125 -s 0 -d 2 -p cbr -e 210 -c 2 -i 151 -a 2 -x {0.0 2.0 147 ------- null}
d -t 1.05125 -s 0 -d 2 -p cbr -e 210 -c 2 -i 151 -a 2 -x {0.0 2.0 147 ------- null}
- -t 1.0544 -s 0 -d 2 -p cbr -e 210 -c 2 -i 33 -a 2 -x {0.0 2.0 33 ------- null}
h -t 1.0544 -s 0 -d 2 -p cbr -e 210 -c 2 -i 33 -a 2 -x {0.0 2.0 -1 ------- null}
+ -t 1.055 -s 0 -d 2 -p cbr -e 210 -c 2 -i 152 -a 2 -x {0.0 2.0 148 ------- null}
+ -t 1.05875 -s 0 -d 2 -p cbr -e 210 -c 2 -i 153 -a 2 -x {0.0 2.0 149 ------- null}
d -t 1.05875 -s 0 -d 2 -p cbr -e 210 -c 2 -i 153 -a 2 -x {0.0 2.0 149 ------- null}
+ -t 1.0625 -s 0 -d 2 -p cbr -e 210 -c 2 -i 154 -a 2 -x {0.0 2.0 150 ------- null}
d -t 1.0625 -s 0 -d 2 -p cbr -e 210 -c 2 -i 154 -a 2 -x {0.0 2.0 150 ------- null}
r -t 1.0644 -s 0 -d 2 -p cbr -e 210 -c 2 -i 32 -a 2 -x {0.0 2.0 32 ------- null}